 # Bcc Nb oriented X=[11-2], Y=[111], Z=[1-10].
  
       38640  atoms
           4  atom types
 
      0.000000000000      78.871816370000  xlo xhi
      0.000000000000     128.272831260000  ylo yhi
      0.000000000000      63.751330180000  zlo zhi
 
Masses
 
            1   47.86700000             # Ti
            2   92.90638000             # Nb
            3   50.94150000             # V
            4   180.94788000            # Ta
 
Atoms # atomic
 
         1    1        3.943590818500       0.000000000000       2.276833493934
         2    1        5.258121354239       1.859026075243       0.000000000000
         3    2        0.000000000000       0.000000000000       0.000000000000
         4    1        1.314530535739       1.859026075243       2.276833493934
         5    2        6.572651101261       0.929513678986       2.276833493934
         6    3        2.629060282761       0.929513678986       0.000000000000
         7    3       11.830772455500       0.000000000000       2.276833493934
         8    2       13.145302991239       1.859026075243       0.000000000000
         9    4        7.887181637000       0.000000000000       0.000000000000
        10    4        9.201712172739       1.859026075243       2.276833493934
        11    4       14.459832738261       0.929513678986       2.276833493934
        12    3       10.516241919761       0.929513678986       0.000000000000
        13    3       19.717954092500       0.000000000000       2.276833493934
        14    4       21.032484628239       1.859026075243       0.000000000000
        15    3       15.774363274000       0.000000000000       0.000000000000
        16    1       17.088893809739       1.859026075243       2.276833493934
        17    4       22.347014375261       0.929513678986       2.276833493934
        18    1       18.403423556761       0.929513678986       0.000000000000
        19    1       27.605135729500       0.000000000000       2.276833493934
        20    1       28.919666265239       1.859026075243       0.000000000000
        21    1       23.661544911000       0.000000000000       0.000000000000
        22    1       24.976075446739       1.859026075243       2.276833493934
        23    4       30.234196012261       0.929513678986       2.276833493934
        24    4       26.290605193761       0.929513678986       0.000000000000
        25    4       35.492317366500       0.000000000000       2.276833493934
        26    4       36.806847902239       1.859026075243       0.000000000000
        27    1       31.548726548000       0.000000000000       0.000000000000
        28    3       32.863257083739       1.859026075243       2.276833493934
        29    2       38.121377649261       0.929513678986       2.276833493934
        30    3       34.177786830761       0.929513678986       0.000000000000
        31    1       43.379499003500       0.000000000000       2.276833493934
        32    3       44.694029539239       1.859026075243       0.000000000000
        33    2       39.435908185000       0.000000000000       0.000000000000
        34    4       40.750438720739       1.859026075243       2.276833493934
        35    4       46.008559286261       0.929513678986       2.276833493934
        36    1       42.064968467761       0.929513678986       0.000000000000
        37    1       51.266680640500       0.000000000000       2.276833493934
        38    1       52.581211176239       1.859026075243       0.000000000000
        39    1       47.323089822000       0.000000000000       0.000000000000
        40    3       48.637620357739       1.859026075243       2.276833493934
        41    3       53.895740923261       0.929513678986       2.276833493934
        42    2       49.952150104761       0.929513678986       0.000000000000
        43    2       59.153862277500       0.000000000000       2.276833493934
        44    2       60.468392813239       1.859026075243       0.000000000000
        45    2       55.210271459000       0.000000000000       0.000000000000
        46    2       56.524801994739       1.859026075243       2.276833493934
        47    2       61.782922560261       0.929513678986       2.276833493934
        48    4       57.839331741761       0.929513678986       0.000000000000
        49    4       67.041043914500       0.000000000000       2.276833493934
        50    2       68.355574450239       1.859026075243       0.000000000000
        51    3       63.097453096000       0.000000000000       0.000000000000
        52    1       64.411983631739       1.859026075243       2.276833493934
        53    3       69.670104197261       0.929513678986       2.276833493934
        54    3       65.726513378761       0.929513678986       0.000000000000
        55    3       74.928225551500       0.000000000000       2.276833493934
        56    4       76.242756087239       1.859026075243       0.000000000000
        57    2       70.984634733000       0.000000000000       0.000000000000
        58    2       72.299165268739       1.859026075243       2.276833493934
        59    1       77.557285834261       0.929513678986       2.276833493934
        60    4       73.613695015761       0.929513678986       0.000000000000
        61    4        3.943590818500       2.788539754229       2.276833493934
        62    3        5.258121354239       4.647565829473       0.000000000000
        63    3        0.000000000000       2.788539754229       0.000000000000
        64    4        1.314530535739       4.647565829473       2.276833493934
        65    3        6.572651101261       3.718053433215       2.276833493934
        66    1        2.629060282761       3.718053433215       0.000000000000
        67    4       11.830772455500       2.788539754229       2.276833493934
        68    2       13.145302991239       4.647565829473       0.000000000000
        69    2        7.887181637000       2.788539754229       0.000000000000
        70    2        9.201712172739       4.647565829473       2.276833493934
        71    1       14.459832738261       3.718053433215       2.276833493934
        72    1       10.516241919761       3.718053433215       0.000000000000
        73    1       19.717954092500       2.788539754229       2.276833493934
        74    3       21.032484628239       4.647565829473       0.000000000000
        75    2       15.774363274000       2.788539754229       0.000000000000
        76    4       17.088893809739       4.647565829473       2.276833493934
        77    1       22.347014375261       3.718053433215       2.276833493934
        78    1       18.403423556761       3.718053433215       0.000000000000
        79    2       27.605135729500       2.788539754229       2.276833493934
        80    2       28.919666265239       4.647565829473       0.000000000000
        81    4       23.661544911000       2.788539754229       0.000000000000
        82    3       24.976075446739       4.647565829473       2.276833493934
        83    3       30.234196012261       3.718053433215       2.276833493934
        84    2       26.290605193761       3.718053433215       0.000000000000
        85    3       35.492317366500       2.788539754229       2.276833493934
        86    1       36.806847902239       4.647565829473       0.000000000000
        87    3       31.548726548000       2.788539754229       0.000000000000
        88    1       32.863257083739       4.647565829473       2.276833493934
        89    4       38.121377649261       3.718053433215       2.276833493934
        90    1       34.177786830761       3.718053433215       0.000000000000
        91    3       43.379499003500       2.788539754229       2.276833493934
        92    1       44.694029539239       4.647565829473       0.000000000000
        93    4       39.435908185000       2.788539754229       0.000000000000
        94    4       40.750438720739       4.647565829473       2.276833493934
        95    1       46.008559286261       3.718053433215       2.276833493934
        96    4       42.064968467761       3.718053433215       0.000000000000
        97    2       51.266680640500       2.788539754229       2.276833493934
        98    2       52.581211176239       4.647565829473       0.000000000000
        99    1       47.323089822000       2.788539754229       0.000000000000
       100    1       48.637620357739       4.647565829473       2.276833493934
       101    1       53.895740923261       3.718053433215       2.276833493934
       102    3       49.952150104761       3.718053433215       0.000000000000
       103    3       59.153862277500       2.788539754229       2.276833493934
       104    3       60.468392813239       4.647565829473       0.000000000000
       105    4       55.210271459000       2.788539754229       0.000000000000
       106    2       56.524801994739       4.647565829473       2.276833493934
       107    1       61.782922560261       3.718053433215       2.276833493934
       108    1       57.839331741761       3.718053433215       0.000000000000
       109    2       67.041043914500       2.788539754229       2.276833493934
       110    2       68.355574450239       4.647565829473       0.000000000000
       111    4       63.097453096000       2.788539754229       0.000000000000
       112    2       64.411983631739       4.647565829473       2.276833493934
       113    2       69.670104197261       3.718053433215       2.276833493934
       114    4       65.726513378761       3.718053433215       0.000000000000
       115    4       74.928225551500       2.788539754229       2.276833493934
       116    1       76.242756087239       4.647565829473       0.000000000000
       117    3       70.984634733000       2.788539754229       0.000000000000
       118    1       72.299165268739       4.647565829473       2.276833493934
       119    4       77.557285834261       3.718053433215       2.276833493934
       120    1       73.613695015761       3.718053433215       0.000000000000
       121    4        3.943590818500       5.577079508458       2.276833493934
       122    1        5.258121354239       7.436105583702       0.000000000000
       123    3        0.000000000000       5.577079508458       0.000000000000
       124    1        1.314530535739       7.436105583702       2.276833493934
       125    1        6.572651101261       6.506593187444       2.276833493934
       126    4        2.629060282761       6.506593187444       0.000000000000
       127    4       11.830772455500       5.577079508458       2.276833493934
       128    4       13.145302991239       7.436105583702       0.000000000000
       129    1        7.887181637000       5.577079508458       0.000000000000
       130    3        9.201712172739       7.436105583702       2.276833493934
       131    1       14.459832738261       6.506593187444       2.276833493934
       132    1       10.516241919761       6.506593187444       0.000000000000
       133    2       19.717954092500       5.577079508458       2.276833493934
       134    2       21.032484628239       7.436105583702       0.000000000000
       135    4       15.774363274000       5.577079508458       0.000000000000
       136    1       17.088893809739       7.436105583702       2.276833493934
       137    2       22.347014375261       6.506593187444       2.276833493934
       138    2       18.403423556761       6.506593187444       0.000000000000
       139    4       27.605135729500       5.577079508458       2.276833493934
       140    4       28.919666265239       7.436105583702       0.000000000000
       141    2       23.661544911000       5.577079508458       0.000000000000
       142    2       24.976075446739       7.436105583702       2.276833493934
       143    2       30.234196012261       6.506593187444       2.276833493934
       144    1       26.290605193761       6.506593187444       0.000000000000
       145    2       35.492317366500       5.577079508458       2.276833493934
       146    3       36.806847902239       7.436105583702       0.000000000000
       147    4       31.548726548000       5.577079508458       0.000000000000
       148    4       32.863257083739       7.436105583702       2.276833493934
       149    4       38.121377649261       6.506593187444       2.276833493934
       150    2       34.177786830761       6.506593187444       0.000000000000
       151    3       43.379499003500       5.577079508458       2.276833493934
       152    4       44.694029539239       7.436105583702       0.000000000000
       153    4       39.435908185000       5.577079508458       0.000000000000
       154    2       40.750438720739       7.436105583702       2.276833493934
       155    3       46.008559286261       6.506593187444       2.276833493934
       156    2       42.064968467761       6.506593187444       0.000000000000
       157    3       51.266680640500       5.577079508458       2.276833493934
       158    2       52.581211176239       7.436105583702       0.000000000000
       159    4       47.323089822000       5.577079508458       0.000000000000
       160    3       48.637620357739       7.436105583702       2.276833493934
       161    3       53.895740923261       6.506593187444       2.276833493934
       162    4       49.952150104761       6.506593187444       0.000000000000
       163    1       59.153862277500       5.577079508458       2.276833493934
       164    4       60.468392813239       7.436105583702       0.000000000000
       165    1       55.210271459000       5.577079508458       0.000000000000
       166    1       56.524801994739       7.436105583702       2.276833493934
       167    1       61.782922560261       6.506593187444       2.276833493934
       168    4       57.839331741761       6.506593187444       0.000000000000
       169    1       67.041043914500       5.577079508458       2.276833493934
       170    3       68.355574450239       7.436105583702       0.000000000000
       171    1       63.097453096000       5.577079508458       0.000000000000
       172    3       64.411983631739       7.436105583702       2.276833493934
       173    1       69.670104197261       6.506593187444       2.276833493934
       174    2       65.726513378761       6.506593187444       0.000000000000
       175    2       74.928225551500       5.577079508458       2.276833493934
       176    2       76.242756087239       7.436105583702       0.000000000000
       177    2       70.984634733000       5.577079508458       0.000000000000
       178    3       72.299165268739       7.436105583702       2.276833493934
       179    2       77.557285834261       6.506593187444       2.276833493934
       180    3       73.613695015761       6.506593187444       0.000000000000
       181    4        3.943590818500       8.365619262688       2.276833493934
       182    4        5.258121354239      10.224645337931       0.000000000000
       183    1        0.000000000000       8.365619262688       0.000000000000
       184    1        1.314530535739      10.224645337931       2.276833493934
       185    3        6.572651101261       9.295132941673       2.276833493934
       186    4        2.629060282761       9.295132941673       0.000000000000
       187    3       11.830772455500       8.365619262688       2.276833493934
       188    3       13.145302991239      10.224645337931       0.000000000000
       189    4        7.887181637000       8.365619262688       0.000000000000
       190    2        9.201712172739      10.224645337931       2.276833493934
       191    1       14.459832738261       9.295132941673       2.276833493934
       192    3       10.516241919761       9.295132941673       0.000000000000
       193    1       19.717954092500       8.365619262688       2.276833493934
       194    2       21.032484628239      10.224645337931       0.000000000000
       195    4       15.774363274000       8.365619262688       0.000000000000
       196    2       17.088893809739      10.224645337931       2.276833493934
       197    3       22.347014375261       9.295132941673       2.276833493934
       198    1       18.403423556761       9.295132941673       0.000000000000
       199    2       27.605135729500       8.365619262688       2.276833493934
       200    1       28.919666265239      10.224645337931       0.000000000000
       201    3       23.661544911000       8.365619262688       0.000000000000
       202    3       24.976075446739      10.224645337931       2.276833493934
       203    1       30.234196012261       9.295132941673       2.276833493934
       204    4       26.290605193761       9.295132941673       0.000000000000
       205    3       35.492317366500       8.365619262688       2.276833493934
       206    3       36.806847902239      10.224645337931       0.000000000000
       207    2       31.548726548000       8.365619262688       0.000000000000
       208    2       32.863257083739      10.224645337931       2.276833493934
       209    3       38.121377649261       9.295132941673       2.276833493934
       210    1       34.177786830761       9.295132941673       0.000000000000
       211    3       43.379499003500       8.365619262688       2.276833493934
       212    4       44.694029539239      10.224645337931       0.000000000000
       213    4       39.435908185000       8.365619262688       0.000000000000
       214    4       40.750438720739      10.224645337931       2.276833493934
       215    2       46.008559286261       9.295132941673       2.276833493934
       216    1       42.064968467761       9.295132941673       0.000000000000
       217    2       51.266680640500       8.365619262688       2.276833493934
       218    1       52.581211176239      10.224645337931       0.000000000000
       219    4       47.323089822000       8.365619262688       0.000000000000
       220    2       48.637620357739      10.224645337931       2.276833493934
       221    2       53.895740923261       9.295132941673       2.276833493934
       222    3       49.952150104761       9.295132941673       0.000000000000
       223    3       59.153862277500       8.365619262688       2.276833493934
       224    3       60.468392813239      10.224645337931       0.000000000000
       225    2       55.210271459000       8.365619262688       0.000000000000
       226    2       56.524801994739      10.224645337931       2.276833493934
       227    3       61.782922560261       9.295132941673       2.276833493934
       228    4       57.839331741761       9.295132941673       0.000000000000
       229    3       67.041043914500       8.365619262688       2.276833493934
       230    2       68.355574450239      10.224645337931       0.000000000000
       231    3       63.097453096000       8.365619262688       0.000000000000
       232    4       64.411983631739      10.224645337931       2.276833493934
       233    4       69.670104197261       9.295132941673       2.276833493934
       234    1       65.726513378761       9.295132941673       0.000000000000
       235    2       74.928225551500       8.365619262688       2.276833493934
       236    1       76.242756087239      10.224645337931       0.000000000000
       237    3       70.984634733000       8.365619262688       0.000000000000
       238    3       72.299165268739      10.224645337931       2.276833493934
       239    2       77.557285834261       9.295132941673       2.276833493934
       240    2       73.613695015761       9.295132941673       0.000000000000
       241    2        3.943590818500      11.154159016917       2.276833493934
       242    4        5.258121354239      13.013186374888       0.000000000000
       243    4        0.000000000000      11.154159016917       0.000000000000
       244    4        1.314530535739      13.013186374888       2.276833493934
       245    2        6.572651101261      12.083672695903       2.276833493934
       246    4        2.629060282761      12.083672695903       0.000000000000
       247    1       11.830772455500      11.154159016917       2.276833493934
       248    1       13.145302991239      13.013186374888       0.000000000000
       249    1        7.887181637000      11.154159016917       0.000000000000
       250    3        9.201712172739      13.013186374888       2.276833493934
       251    1       14.459832738261      12.083672695903       2.276833493934
       252    3       10.516241919761      12.083672695903       0.000000000000
       253    4       19.717954092500      11.154159016917       2.276833493934
       254    1       21.032484628239      13.013186374888       0.000000000000
       255    3       15.774363274000      11.154159016917       0.000000000000
       256    4       17.088893809739      13.013186374888       2.276833493934
       257    2       22.347014375261      12.083672695903       2.276833493934
       258    2       18.403423556761      12.083672695903       0.000000000000
       259    2       27.605135729500      11.154159016917       2.276833493934
       260    2       28.919666265239      13.013186374888       0.000000000000
       261    4       23.661544911000      11.154159016917       0.000000000000
       262    3       24.976075446739      13.013186374888       2.276833493934
       263    1       30.234196012261      12.083672695903       2.276833493934
       264    4       26.290605193761      12.083672695903       0.000000000000
       265    2       35.492317366500      11.154159016917       2.276833493934
       266    4       36.806847902239      13.013186374888       0.000000000000
       267    2       31.548726548000      11.154159016917       0.000000000000
       268    2       32.863257083739      13.013186374888       2.276833493934
       269    3       38.121377649261      12.083672695903       2.276833493934
       270    4       34.177786830761      12.083672695903       0.000000000000
       271    1       43.379499003500      11.154159016917       2.276833493934
       272    3       44.694029539239      13.013186374888       0.000000000000
       273    3       39.435908185000      11.154159016917       0.000000000000
       274    3       40.750438720739      13.013186374888       2.276833493934
       275    3       46.008559286261      12.083672695903       2.276833493934
       276    4       42.064968467761      12.083672695903       0.000000000000
       277    4       51.266680640500      11.154159016917       2.276833493934
       278    4       52.581211176239      13.013186374888       0.000000000000
       279    3       47.323089822000      11.154159016917       0.000000000000
       280    1       48.637620357739      13.013186374888       2.276833493934
       281    4       53.895740923261      12.083672695903       2.276833493934
       282    1       49.952150104761      12.083672695903       0.000000000000
       283    1       59.153862277500      11.154159016917       2.276833493934
       284    3       60.468392813239      13.013186374888       0.000000000000
       285    1       55.210271459000      11.154159016917       0.000000000000
       286    1       56.524801994739      13.013186374888       2.276833493934
       287    1       61.782922560261      12.083672695903       2.276833493934
       288    1       57.839331741761      12.083672695903       0.000000000000
       289    2       67.041043914500      11.154159016917       2.276833493934
       290    4       68.355574450239      13.013186374888       0.000000000000
       291    2       63.097453096000      11.154159016917       0.000000000000
       292    4       64.411983631739      13.013186374888       2.276833493934
       293    2       69.670104197261      12.083672695903       2.276833493934
       294    4       65.726513378761      12.083672695903       0.000000000000
       295    1       74.928225551500      11.154159016917       2.276833493934
       296    1       76.242756087239      13.013186374888       0.000000000000
       297    2       70.984634733000      11.154159016917       0.000000000000
       298    1       72.299165268739      13.013186374888       2.276833493934
       299    2       77.557285834261      12.083672695903       2.276833493934
       300    3       73.613695015761      12.083672695903       0.000000000000
       301    4        3.943590818500      13.942698771146       2.276833493934
       302    2        5.258121354239      15.801726129118       0.000000000000
       303    4        0.000000000000      13.942698771146       0.000000000000
       304    2        1.314530535739      15.801726129118       2.276833493934
       305    1        6.572651101261      14.872212450132       2.276833493934
       306    3        2.629060282761      14.872212450132       0.000000000000
       307    2       11.830772455500      13.942698771146       2.276833493934
       308    1       13.145302991239      15.801726129118       0.000000000000
       309    3        7.887181637000      13.942698771146       0.000000000000
       310    3        9.201712172739      15.801726129118       2.276833493934
       311    1       14.459832738261      14.872212450132       2.276833493934
       312    2       10.516241919761      14.872212450132       0.000000000000
       313    2       19.717954092500      13.942698771146       2.276833493934
       314    3       21.032484628239      15.801726129118       0.000000000000
       315    1       15.774363274000      13.942698771146       0.000000000000
       316    2       17.088893809739      15.801726129118       2.276833493934
       317    3       22.347014375261      14.872212450132       2.276833493934
       318    3       18.403423556761      14.872212450132       0.000000000000
       319    3       27.605135729500      13.942698771146       2.276833493934
       320    4       28.919666265239      15.801726129118       0.000000000000
       321    2       23.661544911000      13.942698771146       0.000000000000
       322    4       24.976075446739      15.801726129118       2.276833493934
       323    4       30.234196012261      14.872212450132       2.276833493934
       324    4       26.290605193761      14.872212450132       0.000000000000
       325    1       35.492317366500      13.942698771146       2.276833493934
       326    4       36.806847902239      15.801726129118       0.000000000000
       327    2       31.548726548000      13.942698771146       0.000000000000
       328    2       32.863257083739      15.801726129118       2.276833493934
       329    2       38.121377649261      14.872212450132       2.276833493934
       330    4       34.177786830761      14.872212450132       0.000000000000
       331    3       43.379499003500      13.942698771146       2.276833493934
       332    1       44.694029539239      15.801726129118       0.000000000000
       333    3       39.435908185000      13.942698771146       0.000000000000
       334    2       40.750438720739      15.801726129118       2.276833493934
       335    2       46.008559286261      14.872212450132       2.276833493934
       336    1       42.064968467761      14.872212450132       0.000000000000
       337    4       51.266680640500      13.942698771146       2.276833493934
       338    1       52.581211176239      15.801726129118       0.000000000000
       339    1       47.323089822000      13.942698771146       0.000000000000
       340    2       48.637620357739      15.801726129118       2.276833493934
       341    1       53.895740923261      14.872212450132       2.276833493934
       342    4       49.952150104761      14.872212450132       0.000000000000
       343    4       59.153862277500      13.942698771146       2.276833493934
       344    2       60.468392813239      15.801726129118       0.000000000000
       345    2       55.210271459000      13.942698771146       0.000000000000
       346    2       56.524801994739      15.801726129118       2.276833493934
       347    2       61.782922560261      14.872212450132       2.276833493934
       348    3       57.839331741761      14.872212450132       0.000000000000
       349    2       67.041043914500      13.942698771146       2.276833493934
       350    4       68.355574450239      15.801726129118       0.000000000000
       351    4       63.097453096000      13.942698771146       0.000000000000
       352    4       64.411983631739      15.801726129118       2.276833493934
       353    1       69.670104197261      14.872212450132       2.276833493934
       354    3       65.726513378761      14.872212450132       0.000000000000
       355    4       74.928225551500      13.942698771146       2.276833493934
       356    2       76.242756087239      15.801726129118       0.000000000000
       357    4       70.984634733000      13.942698771146       0.000000000000
       358    1       72.299165268739      15.801726129118       2.276833493934
       359    3       77.557285834261      14.872212450132       2.276833493934
       360    1       73.613695015761      14.872212450132       0.000000000000
       361    1        3.943590818500      16.731238525375       2.276833493934
       362    1        5.258121354239      18.590265883347       0.000000000000
       363    4        0.000000000000      16.731238525375       0.000000000000
       364    4        1.314530535739      18.590265883347       2.276833493934
       365    4        6.572651101261      17.660752204361       2.276833493934
       366    4        2.629060282761      17.660752204361       0.000000000000
       367    2       11.830772455500      16.731238525375       2.276833493934
       368    1       13.145302991239      18.590265883347       0.000000000000
       369    1        7.887181637000      16.731238525375       0.000000000000