LAMMPS data file via write_data, version 2 Aug 2023, timestep = 50054, units = metal

38640 atoms
4 atom types

-0.001119647897371169 78.87468936789686 xlo xhi
0.01568503956562167 128.2599977704377 ylo yhi
-0.004764729752885799 63.75751211975299 zlo zhi

Masses

1 92.90600000000001
2 180.948
3 47.88
4 50.942

Atoms # atomic

4 3 1.378944019507088 1.88319238894215 2.3520512725300575 0 0 0
6 2 2.550188561914557 1.0472751594440597 0.06268329251409879 0 0 0
63 3 0.015429589277911443 2.8043461276599873 0.011046478511111303 0 0 0
5 2 6.520853941915861 1.0167894466837812 2.3434953635110976 0 0 0
61 4 3.9359166307041216 2.9382458309354083 2.3448043732295374 0 0 0
1 1 3.931589625758162 0.06775819447767403 2.298238278532213 0 0 0
10 2 9.180197973166639 1.956017461666851 2.2342923847905456 0 0 0
7 2 11.801194759621792 0.049676340326099376 2.1990576164641924 0 0 0
67 2 11.945528555722902 2.9649595839759963 2.310928753082274 0 0 0
11 2 14.45608371170255 0.9634733747585619 2.2617004376490195 0 0 0
75 2 15.776874561099419 2.9646543642064067 0.001698353085946844 0 0 0
16 2 17.162365218230377 1.9342915606143063 2.292017738774983 0 0 0
64 2 1.390594579781604 4.665927342910334 2.259743327300429 0 0 0
65 3 6.436949826075969 3.818632011853397 2.2701742821563795 0 0 0
121 4 3.943133776643855 5.589394921654572 2.327425863156669 0 0 0
70 2 9.134868704658729 4.779369716603039 2.265359033906609 0 0 0
127 3 11.667397729089549 5.716852808765203 2.1723102014903897 0 0 0
71 1 14.600917903009915 3.7358995891525044 2.5298723280402435 0 0 0
131 4 14.32897068013625 6.396224973864972 2.2712586184540187 0 0 0
76 1 17.160829401969334 4.802118814184501 2.2771205119745197 0 0 0
124 4 1.3612699494607674 7.429880905293158 2.3179705104542845 0 0 0
125 1 6.444424483143508 6.584761607696201 2.2322461153648727 0 0 0
181 2 3.9319067348937216 8.394877663537097 2.2763678428086447 0 0 0
185 3 6.563933500623032 9.318096694792807 2.2636065783185586 0 0 0
130 4 9.108886131789738 7.528010329008866 2.2257241809125614 0 0 0
187 2 11.720608553890449 8.360904974979357 2.3573510264659547 0 0 0
191 2 14.509221301651861 9.282568135881265 2.335165859743089 0 0 0
195 4 15.79251299466214 8.491616357359563 0.03703103782688129 0 0 0
193 3 19.507006395243522 8.569138014377813 2.359814172105262 0 0 0
136 1 16.975760728295704 7.587439056551473 2.3617272689369986 0 0 0
198 4 18.282500602402003 9.48364492043635 0.06830601425502883 0 0 0
138 1 18.3067438015107 6.700099366667585 -0.0027018002554866243 0 0 0
184 1 1.337634636571673 10.175989237822058 2.189923981163657 0 0 0
241 2 3.868300600911868 11.393650681431884 2.4848641025115605 0 0 0
182 1 5.152901933657229 10.207449726884468 0.016397037687450905 0 0 0
245 3 6.656208772133229 12.096573822651033 2.258256313477142 0 0 0
190 2 9.179183192599208 10.398216755422261 2.4753962997187546 0 0 0
247 1 11.955859170425722 11.063881005451751 2.137693570347805 0 0 0
252 2 10.448554700536036 12.175906584686276 0.026186551232125488 0 0 0
188 1 13.141856392839928 10.17657050039616 0.008456459358597125 0 0 0
251 2 14.442057765120508 12.129016211586174 2.2653271900567895 0 0 0
255 4 15.819903858206409 11.18703482760996 0.03376993252860189 0 0 0
253 2 19.664419311122344 11.24992462010084 2.312138586629011 0 0 0
196 4 17.071969731106417 10.299304731686984 2.2900946790420895 0 0 0
258 4 18.353597731922903 12.20711384069025 0.005612683385427141 0 0 0
244 1 1.2442429762654323 13.01981080240491 2.2575276640132613 0 0 0
304 4 1.3194429703491863 15.795996010098115 2.2574583727019673 0 0 0
306 1 2.6067004465557924 15.018815356027751 0.0016722941775840963 0 0 0
301 1 3.9244144789352857 14.143774500065714 2.2436387827681954 0 0 0
305 4 6.491247048876722 14.770343066849295 2.277737633734213 0 0 0
250 1 9.162498629542037 13.23451987934313 2.267915460326354 0 0 0
310 3 9.069180674693193 15.819142675830209 2.2100757453477917 0 0 0
307 3 11.838470076828592 13.893544110814647 2.288329377682006 0 0 0
311 2 14.516712804748762 14.989884383364776 2.220691936494546 0 0 0
256 2 17.15273639721571 13.084169477729764 2.304582985208073 0 0 0
316 3 17.204770397321585 15.80271829620882 2.155148696269253 0 0 0
313 4 19.714129940336825 14.029563231006033 2.22596076875211 0 0 0
2766 1 2.6444297658550386 1.0141571227494102 4.595680175889118 0 0 0
2823 2 0.07764096067035194 2.8164618893766513 4.5335827785459015 0 0 0
2763 4 0.01326297359988372 0.057629713067944906 4.600486145357528 0 0 0
2762 4 5.244758845092825 2.061453443122955 4.535804011101833 0 0 0
2769 3 7.8982468016017116 0.12042829309430614 4.567503291367173 0 0 0
2829 3 7.8877924321199036 2.925428122982265 4.506270044779649 0 0 0
2772 2 10.576576259376155 0.9684114025609749 4.579029532173265 0 0 0
2768 3 13.2350765899813 1.8621426496058657 4.61452617170158 0 0 0
2775 2 15.802495810758671 0.08516519949587328 4.597439940035134 0 0 0
2835 3 15.918006551822648 2.8209872914738545 4.640435571211031 0 0 0
2778 4 18.471349547431846 0.9954402644612346 4.550468870895883 0 0 0
2826 4 2.681491250782775 3.7973325844775037 4.565598327363431 0 0 0
2883 4 0.14955703850647603 5.603825161863091 4.605248987383027 0 0 0
2822 4 5.177618496486649 4.703812664367758 4.535337803089847 0 0 0
2889 1 7.752366388373484 5.696433964559422 4.550328411560852 0 0 0
2832 1 10.591494060694457 3.8376175531854093 4.587773700474774 0 0 0
2828 3 13.09910564806602 4.77031990681656 4.566747693340055 0 0 0
2895 3 15.784850779037084 5.641477005747967 4.54065382230493 0 0 0
2838 4 18.424184459034137 3.7246874719449647 4.594201690523796 0 0 0
2886 4 2.708706664603963 6.440696985300888 4.51324892287169 0 0 0
2946 2 2.583975756176588 9.24830007064749 4.559677458375585 0 0 0
2882 4 5.242332683185573 7.401351870886036 4.543998746454227 0 0 0
2949 1 7.80712339019694 8.447751311996784 4.551232587886775 0 0 0
2892 3 10.462288529965754 6.581324671002909 4.532778770725696 0 0 0
2952 1 10.559249634563209 9.29463798710404 4.6544352123536 0 0 0
2888 4 13.137968541505318 7.3954352193803485 4.542753175208209 0 0 0
2955 3 15.800952602025285 8.395712695714515 4.627530333015335 0 0 0
2898 2 18.38560630589728 6.615716723112214 4.6379210485579545 0 0 0
2958 4 18.349952279774975 9.452029100290837 4.601643247140432 0 0 0
3003 4 0.08258576749003281 11.234558882112369 4.498842455331911 0 0 0
3006 1 2.6623628138010607 12.087137781830046 4.887146006838973 0 0 0
2942 3 5.221471333696379 10.124749932215574 4.631233004825777 0 0 0
3009 1 7.6951890741888525 11.142120303180027 4.6237445493215645 0 0 0
3012 4 10.793150952905018 12.217112957360582 4.411278732779576 0 0 0
2948 1 13.17493138891277 10.133838362868886 4.660893804638196 0 0 0
3015 2 15.815796364669572 11.132094734977073 4.611637384623624 0 0 0
3018 4 18.43527105601657 12.06762133227621 4.567234152922694 0 0 0
3063 1 0.043712211940882845 13.945540780486438 4.621767715931041 0 0 0
3066 4 2.606680181708696 14.799968059703332 4.549308840170698 0 0 0
3002 3 5.238946491838534 13.003466390902007 4.564008430125016 0 0 0
3062 3 5.203630361950599 15.77819582537683 4.506876163035392 0 0 0
3069 4 7.802618780204316 13.878719848409172 4.4978340657756535 0 0 0
3072 3 10.282219364278193 14.818858057347903 4.619905462302473 0 0 0
3068 2 12.945230015387247 15.610214963625994 4.590722863259804 0 0 0
3008 1 13.306645319762907 12.937100257509549 4.697520741760373 0 0 0
3075 1 15.832774157610915 14.039156322719354 4.60620208245395 0 0 0
3078 3 18.477291717428944 14.80723399668948 4.493916676546451 0 0 0
2764 4 1.311864782968115 1.887795193740435 6.807539456509657 0 0 0
5526 3 2.531713644920784 1.0355040975648693 9.042025704723434 0 0 0
5583 2 0.07774702770465615 2.745238191461347 9.096003149759678 0 0 0
2765 1 6.47319201625524 1.107503295205283 6.753834582500614 0 0 0
2821 2 3.961376001396132 2.860976434305055 6.869792234734221 0 0 0
5522 1 5.09373944726495 1.86105253453608 9.172242876483265 0 0 0
2761 3 3.871756969686444 0.03788655773643972 6.821210729400979 0 0 0
2770 2 9.161823546462351 1.9101704461604092 6.856310399387243 0 0 0
5529 3 7.908555255878797 0.07958524836199683 9.138456650450465 0 0 0
5589 4 7.753304678391094 2.859169564482978 9.118183968773474 0 0 0
2827 1 11.927454586724352 2.8225670549903277 6.886177472764275 0 0 0
5532 1 10.542637071321614 1.0354112620402862 9.08999356165368 0 0 0
2771 4 14.419200040847935 0.9079091217633237 6.861259545606691 0 0 0
5528 3 13.172636193513501 1.856928959690954 9.156103875126124 0 0 0
5535 2 15.79506854556105 0.10791846524641101 9.17377378889124 0 0 0
5595 1 15.719301748246403 2.829884427667159 9.185429887147281 0 0 0
2773 3 19.70564294488266 0.09122200960404586 6.756284644265185 0 0 0
2776 2 17.15089690219092 1.8776214782306115 6.892026545319167 0 0 0
5538 3 18.43863371285957 0.9700350849936757 9.17778936750439 0 0 0
2824 4 1.3790524990567037 4.608329060022861 6.767494839271751 0 0 0
5586 4 2.582702967167167 3.8446989004813896 9.07681807127664 0 0 0
5643 2 0.03711611965787859 5.640297414841164 9.062011607119237 0 0 0
2825 3 6.561042304431661 3.9582910332187358 6.727559446026862 0 0 0
2881 4 3.930881054748389 5.617674387779916 6.7424909666781 0 0 0
5582 1 5.219817975983616 4.670182457711266 8.91538011753242 0 0 0
2830 2 9.1494656951078 4.746817200141607 6.853374878033993 0 0 0
5649 2 7.847466578712519 5.660272739600054 9.100724935513453 0 0 0
2887 2 11.826983243661939 5.690029259318773 6.86919387435832 0 0 0
5592 3 10.483372784499283 3.791214358626453 9.05594002540302 0 0 0
2831 1 14.519782981190819 3.760302732241554 6.749251727154253 0 0 0
5588 4 13.172492629088495 4.658978692902149 9.146666061519616 0 0 0
5655 4 15.724901661749476 5.546756291942932 9.066088750220688 0 0 0
2893 4 19.704720685201995 5.628401278188649 6.914223034802468 0 0 0
2836 3 17.159341582307597 4.747967971827001 6.815362559529102 0 0 0
5598 4 18.302533154619507 3.7575835827585915 9.08899820399053 0 0 0
2884 2 1.324393149138802 7.3711662178434825 6.742955724528763 0 0 0
5646 1 2.647068465392481 6.61228996805374 9.061434718655756 0 0 0
5706 1 2.6314064891198585 9.385742774107594 9.107276676278815 0 0 0
2885 4 6.4987497817363 6.641662503421158 6.785280589675259 0 0 0
2941 2 3.987785672537166 8.394188917658521 6.771334518261907 0 0 0
5642 2 5.304765975241333 7.452243962353713 9.09833496892444 0 0 0
2945 4 6.586910755715578 9.351783594882777 6.9080185500100555 0 0 0
2890 2 9.186810988690064 7.56471999444474 6.839837651578599 0 0 0
5709 3 7.895495142927579 8.46638849217186 9.091712367319223 0 0 0
2947 4 11.841957745836044 8.478251720980442 6.815347987184962 0 0 0
5652 4 10.505706078891656 6.577549906636013 9.09200738808707 0 0 0
5712 1 10.48658994643742 9.36097825492807 9.088345869597823 0 0 0
2891 1 14.517489228553554 6.557393447999218 6.74858471575262 0 0 0
2951 4 14.457421424249373 9.325836440443357 6.90017803277883 0 0 0
5648 2 13.154705421286215 7.487805946692338 8.989669502865402 0 0 0
5715 1 15.73753417524955 8.39092331671119 9.114069277953758 0 0 0
2953 3 19.695417240060568 8.373658246775575 6.782735311698964 0 0 0
2896 4 17.069501014219632 7.527945466970672 6.86539994434847 0 0 0
5658 1 18.388064663843004 6.459644429824371 9.033094214534554 0 0 0
5718 1 18.434343189513708 9.278579459940048 9.0226665922376 0 0 0
2944 3 1.2943353217274867 10.211266772586546 6.847497277628268 0 0 0
5766 4 2.6381581775102276 12.074430323583544 9.099223647644607 0 0 0
3001 3 3.9617886962268942 11.138409176579216 6.980359695494492 0 0 0
5702 4 5.262438364026373 10.279525785680422 9.092810683556937 0 0 0
3005 3 6.587203594683073 12.097455488711903 6.8874299102734815 0 0 0
2950 4 9.20961739621067 10.294058384858152 6.7670851699662755 0 0 0
5769 2 7.8969502408970245 11.172635862463249 9.086165710489794 0 0 0
3007 4 11.774855911888956 11.197421577008393 6.87973048417848 0 0 0
5772 3 10.485154190782515 12.089453379268688 9.092473102894743 0 0 0
5708 4 13.00983791613902 10.325283583434073 9.09878295539452 0 0 0
3011 1 14.372073038906347 12.092114756963223 6.923984005596289 0 0 0
5775 2 15.640780936497091 11.214873962576176 9.081836815166417 0 0 0
2956 4 17.106573125245603 10.190585662520855 6.845122516851446 0 0 0
5778 2 18.420539328442626 12.109522365959316 9.156635615745882 0 0 0
3004 3 1.218277465005643 13.020541659864096 6.935749111260123 0 0 0
3064 1 1.2137063302685425 15.782737078003615 6.904795872894684 0 0 0
5826 1 2.6776267337024993 14.930348559883958 9.123428251643052 0 0 0
3061 3 3.9246621396804544 13.945364102978623 6.882133665482367 0 0 0
3065 1 6.43118700083344 14.888920742412042 6.858157914381328 0 0 0
5762 4 5.21571702143409 12.889867286117651 9.139327574255171 0 0 0
5822 3 5.318668724363714 15.724758842351806 9.233667672151329 0 0 0
3010 2 9.254580950321865 12.99570393287606 6.796685807469313 0 0 0
3070 3 9.119845110513591 15.723625170871282 6.95000674576603 0 0 0
5829 2 7.818589539044262 13.951823199292512 9.056150718886954 0 0 0
3067 4 11.777817519603477 13.907021274010303 6.945722367160516 0 0 0
5832 4 10.553213371894508 14.780750594187534 9.128405118869031 0 0 0
5768 3 13.138761824502371 13.01948322720076 9.161490599251668 0 0 0
5828 4 13.037223231098091 15.735586888012708 9.160638820882 0 0 0
3071 3 14.459306560448837 14.81663406655065 6.940158797840867 0 0 0
5835 4 15.810815849926211 13.932013714259632 9.142935701221 0 0 0
3016 2 17.07084656809493 12.961984720148841 6.846570391772963 0 0 0
3076 2 17.087938260485487 15.74526509350442 6.795495108074538 0 0 0
5838 4 18.395277543396336 14.919286991036461 9.078911137761995 0 0 0
3073 1 19.678275887869177 13.907622123803442 6.923260762672222 0 0 0
5524 4 1.3132493412617376 1.8028670812905234 11.344195936080617 0 0 0
5521 3 3.820825421091682 0.05468970932590408 11.394066376418415 0 0 0
5525 2 6.519700874504994 0.9168588040999834 11.408112967422861 0 0 0
5581 1 3.8618309228629695 2.83536865178831 11.346143389868574 0 0 0
5530 2 9.170830890705318 1.8719300660209992 11.410688490092483 0 0 0
5587 2 11.808313486941408 2.825123140310583 11.393650930167531 0 0 0
5531 4 14.445527447838073 0.9647846120142529 11.495835173931441 0 0 0
5593 2 19.69184867110343 2.830423631445014 11.311672454796781 0 0 0
5533 1 19.633324286624525 0.11191654932341812 11.482642451744939 0 0 0
5536 3 17.04886400296402 1.8795334829386718 11.462247817874578 0 0 0
5584 4 1.3066056080729826 4.5899644549883885 11.324770898201328 0 0 0
5585 2 6.506966085256241 3.818551561495434 11.384198100630723 0 0 0
5641 2 3.9281527533952243 5.692691409270512 11.303622068506604 0 0 0
5590 2 9.216190074151838 4.668813828092287 11.36623781564128 0 0 0
5647 1 11.79671197730415 5.626375858827068 11.357782617876927 0 0 0
5591 3 14.464753376834942 3.702700892511234 11.393210049810444 0 0 0
5653 1 19.671354743306765 5.578506871643716 11.3047964185376 0 0 0
5596 4 17.00566346535684 4.634094993611549 11.345947655963737 0 0 0
5644 3 1.2724163702882025 7.480951178882871 11.341109927448818 0 0 0
5701 3 3.959508132250827 8.514759182144019 11.359993528465491 0 0 0
5645 1 6.596131293917036 6.654287941421366 11.464019534148918 0 0 0
5705 1 6.596280921152083 9.381934432089226 11.343178190817886 0 0 0
5650 2 9.19383168364805 7.540278220904563 11.40869793494175 0 0 0
5707 1 11.786049593179895 8.473270536713889 11.310606328830955 0 0 0
5651 2 14.466778098358665 6.4765443323701 11.316543773116612 0 0 0
5711 1 14.386231939030278 9.361876442233752 11.333317447239278 0 0 0
5713 1 19.632792740588254 8.323523623485018 11.28703988363894 0 0 0
5656 1 17.08815362031881 7.4143403599229645 11.328292224933103 0 0 0
5704 1 1.3256255034705728 10.229680196687633 11.384102448061926 0 0 0
5761 4 3.9926031104302786 11.172936864583564 11.353739117213347 0 0 0
5765 4 6.545569700032468 12.108314209558712 11.3396134190384 0 0 0
5710 4 9.19090555335123 10.311042493722221 11.423708400822724 0 0 0
5767 4 11.67843162991278 11.255066126122435 11.326051594903486 0 0 0
5771 2 14.330166543032192 12.254632381827477 11.590803215698196 0 0 0
5716 2 17.064773652676866 10.315103365891954 11.348174963529928 0 0 0
5764 1 1.2516590262683753 12.966271229637082 11.336516362852487 0 0 0
5824 3 1.318572688000709 15.729665930104838 11.378714873657438 0 0 0
5821 1 3.9652954395632896 13.861607181938533 11.293024326294523 0 0 0
5825 4 6.616952242637066 14.827973504360765 11.403205757475263 0 0 0
5770 2 9.168692657458367 13.047805237826623 11.372213565694777 0 0 0
5830 1 9.198160902685187 15.81975235622936 11.410105846886243 0 0 0
5827 4 11.717947151919025 13.952118685460746 11.319467969877117 0 0 0
5831 1 14.351166038903711 14.954593882429931 11.330147063978407 0 0 0
5833 3 19.70068018824654 13.962759989179132 11.257578441708244 0 0 0
5776 1 17.0665263828248 13.120351802601945 11.441105852140856 0 0 0
5836 1 17.014053443867823 15.744107740636498 11.369351500545077 0 0 0
8286 1 2.540233450208375 0.9174930849454225 13.628134334308733 0 0 0
8282 2 5.224260238348289 1.87771970700089 13.623893314541803 0 0 0
8289 4 7.862398752443515 0.1085916655252078 13.687359644986524 0 0 0
8349 4 7.871227111468802 2.8697792805935394 13.639065551461783 0 0 0
8285 4 6.5762324106057495 0.9672480196093058 15.842800733123008 0 0 0
8290 1 9.231106015662132 1.743676073439304 15.755180158315133 0 0 0
8287 1 11.87904429782157 0.025782246369593503 15.908667595012664 0 0 0
8292 3 10.55208119689992 0.9809886186365364 13.652554820119548 0 0 0
8288 4 13.160467786955177 1.9167978843223044 13.706743101765333 0 0 0
8355 1 15.757130347930538 2.7549874696662617 13.708505704362057 0 0 0
8291 3 14.479790591507484 0.9161956317078502 15.85232149252348 0 0 0
8298 4 18.37320707354133 0.8928905972342511 13.723129659788354 0 0 0
8346 1 2.5347411263020345 3.752872372756521 13.559898994637969 0 0 0
8344 4 1.2653475938064436 4.718511244253764 15.813662300881747 0 0 0
8342 2 5.179911146076852 4.754455071628642 13.711753845116712 0 0 0
8409 4 7.83984623046802 5.652429109249761 13.651575680823962 0 0 0
8345 1 6.60168385628394 3.782584890875751 15.880598280757138 0 0 0
8350 1 9.242718562473913 4.679613912077065 15.84395201698641 0 0 0
8352 4 10.45010726028467 3.7040043984408006 13.72120287217373 0 0 0
8407 1 11.8456287581487 5.591202920344944 15.883018705122995 0 0 0
8348 1 13.138772645513884 4.61341409754637 13.64650760693305 0 0 0
8415 4 15.777205003441447 5.477543571729205 13.614409892429288 0 0 0
8351 3 14.45240224685218 3.686935506731119 15.930268169020225 0 0 0
8358 2 18.395914474471343 3.67654993346055 13.677784942207158 0 0 0
8418 1 18.399384813920843 6.41806643578677 13.643278259054938 0 0 0
8406 1 2.559704905972559 6.706490850992349 13.517288524958685 0 0 0
8466 3 2.609804073222051 9.421737913902334 13.625559721774236 0 0 0
8404 1 1.2279123893077477 7.540893345718151 15.883821594450444 0 0 0
8402 4 5.296511283445802 7.608813733825183 13.577028994099232 0 0 0
8461 1 3.9025259293479535 8.475223009667504 15.806917778845355 0 0 0
8469 4 7.9007055516159035 8.453972279047699 13.6711421723738 0 0 0
8405 1 6.60969631829879 6.805147330617764 15.841073742401809 0 0 0
8465 3 6.606685150694096 9.505888985247951 15.761972249716978 0 0 0
8410 4 9.194437818569149 7.616585107236023 15.850155169863152 0 0 0
8412 1 10.455292549869327 6.533977990865623 13.637258476302726 0 0 0
8472 4 10.39591766859601 9.434949944574145 13.640393168729762 0 0 0
8408 1 13.12586544402563 7.433036427343046 13.614953615997548 0 0 0
8467 2 11.805766649244429 8.431282215327391 15.862269923318529 0 0 0
8475 1 15.768088888805321 8.323748925733131 13.61016366654267 0 0 0
8411 3 14.46833229548467 6.518259042854034 15.878804534479723 0 0 0
8471 2 14.50823870652151 9.33255998873084 15.871430990270424 0 0 0
8473 1 19.595569265586676 8.279224185811133 15.78076223758985 0 0 0
8478 4 18.406811494932345 9.30291737658816 13.623214022231405 0 0 0
8416 4 17.026378991816653 7.42025657509228 15.882913813873092 0 0 0
8526 4 2.5271057858047277 12.050918099641168 13.558281516257534 0 0 0
8464 3 1.1954262604890833 10.305247531787044 15.824619728684825 0 0 0
8462 4 5.242820755282156 10.251802448891235 13.491764277906093 0 0 0
8521 2 3.9125012220574247 11.182597076978158 15.79839578330275 0 0 0
8529 2 7.862019298523337 11.186866563225117 13.630533421598157 0 0 0
8525 4 6.684122792397959 12.184521711895615 15.77608216079091 0 0 0
8470 4 9.21415202083919 10.284671419529015 15.844296651208264 0 0 0
8532 4 10.442327091525138 12.128426924462632 13.629923204980091 0 0 0
8468 2 13.025485404466584 10.283716775924836 13.576923812453684 0 0 0
8527 2 11.779033643889463 11.235899954993961 15.905760638972513 0 0 0
8535 3 15.764197347453168 11.040407730377359 13.661472814921924 0 0 0
8531 4 14.469358460633298 12.209191474957073 15.679212017885499 0 0 0
8538 3 18.359381495152686 12.07109295794735 13.63097218181595 0 0 0
8476 3 17.11990336117746 10.249219283893723 15.889522382661049 0 0 0
8583 4 0.03428752239504314 13.88353094454883 13.62765596167394 0 0 0
8586 2 2.7137692242618083 14.817434097518069 13.584111050045712 0 0 0
8524 4 1.2984733819379133 12.974087290197843 15.739675843672405 0 0 0
8584 2 1.3012747358076429 15.777703167981537 15.831372401009407 0 0 0
8522 2 5.216428442726316 13.023620651722805 13.539595974726176 0 0 0
8582 3 5.579681732129209 15.747962677639556 13.640132152179833 0 0 0
8581 1 4.016304577229338 13.949281086195338 15.92912799904186 0 0 0
8589 4 7.922882195935088 13.964305459786369 13.64680473921186 0 0 0
8585 1 6.68869785083208 14.92711850129598 15.893978033659215 0 0 0
8530 4 9.199280208920102 12.975163346047188 15.800979843510595 0 0 0
8590 4 9.224758989799437 15.762131525880578 15.85199425958644 0 0 0
8592 4 10.461291853169556 14.832700915278535 13.611527349617521 0 0 0
8528 1 12.876055548955101 13.079614846179515 13.674365979238216 0 0 0
8588 4 13.13607704999809 15.794281556818127 13.592095947923815 0 0 0
8587 2 11.770348601464132 14.00655979086001 15.877143662098305 0 0 0
8595 3 15.674972116760165 13.965890276527313 13.668267308861337 0 0 0
8591 4 14.490290942120849 14.864414905837972 15.814370937656456 0 0 0
8598 2 18.389623565125188 14.821460433300949 13.616726949870575 0 0 0
8536 4 17.06611754075749 13.013941682762097 15.85608216156595 0 0 0
8596 4 16.983446505435097 15.722658699424239 15.84719398455502 0 0 0
8593 4 19.602852247748622 13.93327662215612 15.917887095076887 0 0 0
8284 1 1.2379590826936457 1.8831393630903892 15.937196431732866 0 0 0
11046 3 2.5936090240395746 0.9736999921698732 18.187609294996836 0 0 0
11103 1 2.081517352480985e-05 2.8035056617791825 18.08027750967279 0 0 0
8341 2 3.9148691305471357 2.874048851433382 15.950024608478545 0 0 0
11042 3 5.33949718040631 1.859233332539749 18.093502486123995 0 0 0
11109 2 8.107956022336735 2.785877433905153 18.005776372847883 0 0 0
8347 4 11.832217678706765 2.755089183195251 15.938506032743222 0 0 0
11052 3 10.548912393936215 1.0113445067755267 18.130350744408787 0 0 0
11048 4 13.173624553118627 1.908622225489368 18.14445689104825 0 0 0
11055 1 15.757663122582338 0.10467383952081676 18.031540684854885 0 0 0
11115 4 15.784334697851545 2.744358549542457 18.13817147078725 0 0 0
8353 4 19.641482737569035 2.7365144213839616 15.984576777832045 0 0 0
8293 4 19.614831720008297 0.11883846970168453 15.957704608443416 0 0 0
8296 4 17.098161291246953 1.9281494802681458 15.94235870544544 0 0 0
11058 4 18.328661761723936 0.9882411200966228 18.186480430265078 0 0 0
11106 3 2.5484015320434614 3.8362654387525716 18.161414802358497 0 0 0
11163 2 0.002373410987582321 5.590874050254151 18.120000169582102 0 0 0
8401 1 3.926384834689804 5.766677812934258 15.945655573851445 0 0 0
11102 1 5.154654217824933 4.714130641973595 18.20874571535507 0 0 0
11169 2 7.9196262871868255 5.687500173820461 18.02554085636787 0 0 0
11112 1 10.624198565051692 3.8288698661256215 18.25460436402435 0 0 0
11108 1 13.22594622373413 4.648941831228318 18.20316281791308 0 0 0
11175 1 15.717051726170663 5.540288534217383 18.128563316375725 0 0 0
8356 3 17.11531670862423 4.623538510931897 15.938377352734316 0 0 0
11118 4 18.35907987504409 3.59643784235002 18.138354038894203 0 0 0
11178 2 18.38599890563142 6.371994916641851 18.122414764076087 0 0 0
11166 3 2.5794306618236815 6.653141878759581 18.10982720574042 0 0 0
11226 4 2.595199825206083 9.457135994661117 18.119438714734994 0 0 0
11162 3 5.274899668792005 7.5359150458394595 18.065122371924208 0 0 0
11229 3 7.911769804355445 8.435842626051352 18.12945661080538 0 0 0
11172 1 10.528549912172615 6.5874968394050555 18.14999879498421 0 0 0
11232 2 10.465514983385724 9.403791019019655 18.201629199014693 0 0 0
11168 3 13.086299905662306 7.514365818864831 18.22505563364219 0 0 0
11235 3 15.833210053524715 8.324237030480237 18.178142723472085 0 0 0
11238 2 18.465106157024348 9.288058867878684 18.083655762967524 0 0 0
11286 3 2.6366273977072927 12.131657850682666 18.076298479514467 0 0 0
11222 1 5.275574826002198 10.34977625523555 18.093392910003235 0 0 0
11289 2 7.9170461296940715 11.20874123449714 18.112890729768196 0 0 0
11292 4 10.447820185127295 12.213863251108002 18.133192775603092 0 0 0
11228 1 13.166956508997105 10.340422243020733 18.16693045380831 0 0 0
11295 1 15.715651596002651 11.156183047030623 18.00966859550851 0 0 0
11298 3 18.272775695220407 12.103546128578177 18.162940764630456 0 0 0
11343 1 0.05424954385804086 13.964931865420615 18.047059444151117 0 0 0
11346 1 2.6927949037377683 14.821600401829542 18.11228870636144 0 0 0
11282 3 5.342231034875061 13.063851524431795 18.153727564902155 0 0 0
11342 1 5.343085033873335 15.889657301235566 18.134184632491085 0 0 0
11349 1 7.922843018076401 13.989062617327004 18.1598117982209 0 0 0
11352 1 10.346740759704877 14.905024320367184 18.15381181749919 0 0 0
11348 2 13.015364358670576 15.720987391495527 18.03010197701686 0 0 0
11288 3 13.227160382559797 13.004522957442843 18.073675251753766 0 0 0
11355 4 15.750782627292434 13.894371629654149 18.03796678839419 0 0 0
11358 2 18.319088366604188 14.853943828814717 18.14112747448663 0 0 0
11044 1 1.4452912657863861 1.9464699550804356 20.444820822684783 0 0 0
11101 3 3.984030631704145 2.849743215259432 20.41093496769625 0 0 0
11041 3 3.9852645393924515 0.02256435910539653 20.487315494996377 0 0 0
11045 3 6.676559646969334 0.9764269855428147 20.381123106554252 0 0 0
11050 4 9.342193240418293 1.8651826358877752 20.431109088363655 0 0 0
11047 3 11.793701486447123 0.07041409754936838 20.45800791254256 0 0 0
11107 4 11.864302253460007 2.8178450695038184 20.374301956972918 0 0 0
11051 3 14.420542541818383 0.8235129208176543 20.255677143044263 0 0 0
11113 1 19.694600019910048 2.7597685382250416 20.482760340185063 0 0 0
11056 4 16.967116877935403 1.8679170545225978 20.47656134157541 0 0 0
11053 3 19.675467348433585 0.058391316172408954 20.438428849157507 0 0 0
11104 4 1.373578467607751 4.682406581390585 20.4621731790546 0 0 0
11161 3 3.8786336745159353 5.650829650406957 20.391713408888247 0 0 0
11105 1 6.697729143529742 3.6868515919113096 20.322434935141384 0 0 0
11110 4 9.275856207790307 4.710214442488899 20.423697368084287 0 0 0
11167 4 11.928653478065238 5.723165792979988 20.405251726001097 0 0 0
11111 3 14.481857743034066 3.602639532082827 20.401844927878894 0 0 0
11171 3 14.595666672461467 6.396592513695352 20.473424537670606 0 0 0
11173 1 19.6999328372133 5.463394122967966 20.47751959562309 0 0 0
11116 4 17.113200031937488 4.55643540912983 20.355662461724535 0 0 0
11164 1 1.2810541935290278 7.514484356030096 20.31718960913287 0 0 0
11221 2 3.91112063151188 8.405146824962252 20.34743491930339 0 0 0
11165 2 6.595568451814938 6.5928322842282325 20.368011549708935 0 0 0
11225 1 6.617430081476473 9.378230542024516 20.406407287772087 0 0 0
11170 4 9.210957232734092 7.461033882758105 20.40322268118432 0 0 0
11227 1 11.630096662975648 8.447901387950028 20.595811652384512 0 0 0
11231 2 14.303750699245546 9.166359968299439 20.461980581030815 0 0 0
11176 3 17.17863519140392 7.380872731206163 20.491733331464253 0 0 0
11233 1 19.707658986355145 8.184996717433082 20.46198705278405 0 0 0
11224 4 1.360607711950605 10.271601102079785 20.375073154336796 0 0 0
11281 1 3.8857935426160073 11.316871867217088 20.354890792669458 0 0 0
11285 2 6.602509966618331 12.171641290989527 20.48846419651398 0 0 0
11230 3 9.150597814218608 10.27487061585051 20.53162194499954 0 0 0
11287 3 11.818031835022948 11.128457389657123 20.468447593889945 0 0 0
11291 3 14.465316705147309 12.046643700286062 20.44686730635452 0 0 0
11293 2 19.65065174544146 11.082852835352314 20.413576954591214 0 0 0
11236 2 16.97061385164423 10.197916593764077 20.459855422424482 0 0 0
11284 3 1.3152811696796756 13.096872903412361 20.387419295320402 0 0 0
11344 1 1.4238360347836139 15.79841807658816 20.56064863201311 0 0 0
11341 4 4.030145262490476 14.011435079399412 20.469424259040508 0 0 0
11345 2 6.631373983819847 14.959286033807327 20.47770722779695 0 0 0
11290 4 9.281254145447102 13.053165008953679 20.46787561408706 0 0 0
11350 4 9.230629890456113 15.85319907280371 20.512696903333097 0 0 0
11347 1 11.863243324865909 13.801340168661074 20.375389905437622 0 0 0
11351 2 14.427352665272997 14.846876002663995 20.39826928827096 0 0 0
11353 2 19.668389194383597 13.951128615251482 20.44552531707179 0 0 0
11296 1 16.99785465611733 13.037514802431572 20.47211467607581 0 0 0
11356 3 17.072801775451623 15.765761899588329 20.45909582565431 0 0 0
13804 3 1.3910976571744749 1.9042264106996813 25.081650392462386 0 0 0
13806 3 2.5910212034757003 1.0266012212749522 22.707719201533827 0 0 0
13863 3 0.044055755137793674 2.8005764563438227 22.731536057068844 0 0 0
13801 3 3.9253076560994407 0.11814041994614305 25.010231696233156 0 0 0
13802 1 5.203285316580976 1.8504497606389088 22.573042476765426 0 0 0
13805 2 6.532432345633287 0.9753798209807224 24.927306277562362 0 0 0
13861 4 3.8949568460616892 2.81304386701142 24.872123689823916 0 0 0
13809 2 7.970382919087442 0.06666019478301446 22.63638596532674 0 0 0
13810 2 9.274977968518153 1.922166908870001 25.01522721412551 0 0 0
13869 3 7.943876268085527 2.830949184306239 22.623974547343092 0 0 0
13807 3 11.885211790036536 0.13402360408553432 24.99090519187142 0 0 0
13812 3 10.562825928957322 1.0388970079141697 22.68640083907281 0 0 0
13867 1 11.895525245525617 2.9064142869199086 25.0192417741094 0 0 0
13808 2 13.297418186667583 1.8768720952875266 22.605450711997758 0 0 0