 # Bcc Nb oriented X=[11-2], Y=[111], Z=[1-10].
  
       38640  atoms
           4  atom types
 
      0.000000000000      78.873569720000  xlo xhi
      0.000000000000     128.275682810000  ylo yhi
      0.000000000000      63.752747390000  zlo zhi
 
Masses
 
            1   180.94788000            # Ta
            2   92.90638000             # Nb
            3   47.86700000             # Ti
            4   50.94150000             # V
 
Atoms # atomic
 
         1    1        3.943678486000       0.000000000000       2.276884108583
         2    2        5.258238244245       1.859067402045       0.000000000000
         3    3        0.000000000000       0.000000000000       0.000000000000
         4    3        1.314559758245       1.859067402045       2.276884108583
         5    2        6.572797213755       0.929534342401       2.276884108583
         6    2        2.629118727755       0.929534342401       0.000000000000
         7    2       11.831035458000       0.000000000000       2.276884108583
         8    2       13.145595216245       1.859067402045       0.000000000000
         9    2        7.887356972000       0.000000000000       0.000000000000
        10    2        9.201916730245       1.859067402045       2.276884108583
        11    2       14.460154185755       0.929534342401       2.276884108583
        12    1       10.516475699755       0.929534342401       0.000000000000
        13    1       19.718392430000       0.000000000000       2.276884108583
        14    2       21.032952188245       1.859067402045       0.000000000000
        15    3       15.774713944000       0.000000000000       0.000000000000
        16    2       17.089273702245       1.859067402045       2.276884108583
        17    3       22.347511157755       0.929534342401       2.276884108583
        18    3       18.403832671755       0.929534342401       0.000000000000
        19    2       27.605749402000       0.000000000000       2.276884108583
        20    2       28.920309160245       1.859067402045       0.000000000000
        21    2       23.662070916000       0.000000000000       0.000000000000
        22    2       24.976630674245       1.859067402045       2.276884108583
        23    4       30.234868129755       0.929534342401       2.276884108583
        24    2       26.291189643755       0.929534342401       0.000000000000
        25    3       35.493106374000       0.000000000000       2.276884108583
        26    2       36.807666132245       1.859067402045       0.000000000000
        27    4       31.549427888000       0.000000000000       0.000000000000
        28    2       32.863987646245       1.859067402045       2.276884108583
        29    4       38.122225101755       0.929534342401       2.276884108583
        30    3       34.178546615755       0.929534342401       0.000000000000
        31    1       43.380463346000       0.000000000000       2.276884108583
        32    3       44.695023104245       1.859067402045       0.000000000000
        33    2       39.436784860000       0.000000000000       0.000000000000
        34    3       40.751344618245       1.859067402045       2.276884108583
        35    4       46.009582073755       0.929534342401       2.276884108583
        36    4       42.065903587755       0.929534342401       0.000000000000
        37    1       51.267820318000       0.000000000000       2.276884108583
        38    1       52.582380076245       1.859067402045       0.000000000000
        39    4       47.324141832000       0.000000000000       0.000000000000
        40    4       48.638701590245       1.859067402045       2.276884108583
        41    4       53.896939045755       0.929534342401       2.276884108583
        42    2       49.953260559755       0.929534342401       0.000000000000
        43    1       59.155177290000       0.000000000000       2.276884108583
        44    2       60.469737048245       1.859067402045       0.000000000000
        45    1       55.211498804000       0.000000000000       0.000000000000
        46    2       56.526058562245       1.859067402045       2.276884108583
        47    4       61.784296017755       0.929534342401       2.276884108583
        48    1       57.840617531755       0.929534342401       0.000000000000
        49    3       67.042534262000       0.000000000000       2.276884108583
        50    2       68.357094020245       1.859067402045       0.000000000000
        51    4       63.098855776000       0.000000000000       0.000000000000
        52    1       64.413415534245       1.859067402045       2.276884108583
        53    1       69.671652989755       0.929534342401       2.276884108583
        54    2       65.727974503755       0.929534342401       0.000000000000
        55    4       74.929891234000       0.000000000000       2.276884108583
        56    3       76.244450992245       1.859067402045       0.000000000000
        57    3       70.986212748000       0.000000000000       0.000000000000
        58    2       72.300772506245       1.859067402045       2.276884108583
        59    2       77.559009961755       0.929534342401       2.276884108583
        60    3       73.615331475755       0.929534342401       0.000000000000
        61    4        3.943678486000       2.788601744445       2.276884108583
        62    2        5.258238244245       4.647669146490       0.000000000000
        63    3        0.000000000000       2.788601744445       0.000000000000
        64    2        1.314559758245       4.647669146490       2.276884108583
        65    3        6.572797213755       3.718136086846       2.276884108583
        66    3        2.629118727755       3.718136086846       0.000000000000
        67    2       11.831035458000       2.788601744445       2.276884108583
        68    1       13.145595216245       4.647669146490       0.000000000000
        69    3        7.887356972000       2.788601744445       0.000000000000
        70    2        9.201916730245       4.647669146490       2.276884108583
        71    1       14.460154185755       3.718136086846       2.276884108583
        72    2       10.516475699755       3.718136086846       0.000000000000
        73    2       19.718392430000       2.788601744445       2.276884108583
        74    1       21.032952188245       4.647669146490       0.000000000000
        75    2       15.774713944000       2.788601744445       0.000000000000
        76    1       17.089273702245       4.647669146490       2.276884108583
        77    1       22.347511157755       3.718136086846       2.276884108583
        78    3       18.403832671755       3.718136086846       0.000000000000
        79    2       27.605749402000       2.788601744445       2.276884108583
        80    2       28.920309160245       4.647669146490       0.000000000000
        81    1       23.662070916000       2.788601744445       0.000000000000
        82    1       24.976630674245       4.647669146490       2.276884108583
        83    4       30.234868129755       3.718136086846       2.276884108583
        84    4       26.291189643755       3.718136086846       0.000000000000
        85    3       35.493106374000       2.788601744445       2.276884108583
        86    1       36.807666132245       4.647669146490       0.000000000000
        87    3       31.549427888000       2.788601744445       0.000000000000
        88    4       32.863987646245       4.647669146490       2.276884108583
        89    2       38.122225101755       3.718136086846       2.276884108583
        90    3       34.178546615755       3.718136086846       0.000000000000
        91    1       43.380463346000       2.788601744445       2.276884108583
        92    2       44.695023104245       4.647669146490       0.000000000000
        93    2       39.436784860000       2.788601744445       0.000000000000
        94    2       40.751344618245       4.647669146490       2.276884108583
        95    3       46.009582073755       3.718136086846       2.276884108583
        96    1       42.065903587755       3.718136086846       0.000000000000
        97    2       51.267820318000       2.788601744445       2.276884108583
        98    2       52.582380076245       4.647669146490       0.000000000000
        99    1       47.324141832000       2.788601744445       0.000000000000
       100    3       48.638701590245       4.647669146490       2.276884108583
       101    2       53.896939045755       3.718136086846       2.276884108583
       102    3       49.953260559755       3.718136086846       0.000000000000
       103    3       59.155177290000       2.788601744445       2.276884108583
       104    2       60.469737048245       4.647669146490       0.000000000000
       105    3       55.211498804000       2.788601744445       0.000000000000
       106    2       56.526058562245       4.647669146490       2.276884108583
       107    4       61.784296017755       3.718136086846       2.276884108583
       108    1       57.840617531755       3.718136086846       0.000000000000
       109    3       67.042534262000       2.788601744445       2.276884108583
       110    2       68.357094020245       4.647669146490       0.000000000000
       111    4       63.098855776000       2.788601744445       0.000000000000
       112    3       64.413415534245       4.647669146490       2.276884108583
       113    1       69.671652989755       3.718136086846       2.276884108583
       114    1       65.727974503755       3.718136086846       0.000000000000
       115    4       74.929891234000       2.788601744445       2.276884108583
       116    1       76.244450992245       4.647669146490       0.000000000000
       117    1       70.986212748000       2.788601744445       0.000000000000
       118    2       72.300772506245       4.647669146490       2.276884108583
       119    1       77.559009961755       3.718136086846       2.276884108583
       120    2       73.615331475755       3.718136086846       0.000000000000
       121    4        3.943678486000       5.577203488891       2.276884108583
       122    3        5.258238244245       7.436270890935       0.000000000000
       123    3        0.000000000000       5.577203488891       0.000000000000
       124    4        1.314559758245       7.436270890935       2.276884108583
       125    1        6.572797213755       6.506737831291       2.276884108583
       126    2        2.629118727755       6.506737831291       0.000000000000
       127    3       11.831035458000       5.577203488891       2.276884108583
       128    1       13.145595216245       7.436270890935       0.000000000000
       129    1        7.887356972000       5.577203488891       0.000000000000
       130    4        9.201916730245       7.436270890935       2.276884108583
       131    4       14.460154185755       6.506737831291       2.276884108583
       132    4       10.516475699755       6.506737831291       0.000000000000
       133    2       19.718392430000       5.577203488891       2.276884108583
       134    3       21.032952188245       7.436270890935       0.000000000000
       135    1       15.774713944000       5.577203488891       0.000000000000
       136    1       17.089273702245       7.436270890935       2.276884108583
       137    1       22.347511157755       6.506737831291       2.276884108583
       138    1       18.403832671755       6.506737831291       0.000000000000
       139    1       27.605749402000       5.577203488891       2.276884108583
       140    3       28.920309160245       7.436270890935       0.000000000000
       141    3       23.662070916000       5.577203488891       0.000000000000
       142    3       24.976630674245       7.436270890935       2.276884108583
       143    3       30.234868129755       6.506737831291       2.276884108583
       144    1       26.291189643755       6.506737831291       0.000000000000
       145    3       35.493106374000       5.577203488891       2.276884108583
       146    1       36.807666132245       7.436270890935       0.000000000000
       147    4       31.549427888000       5.577203488891       0.000000000000
       148    4       32.863987646245       7.436270890935       2.276884108583
       149    3       38.122225101755       6.506737831291       2.276884108583
       150    1       34.178546615755       6.506737831291       0.000000000000
       151    4       43.380463346000       5.577203488891       2.276884108583
       152    2       44.695023104245       7.436270890935       0.000000000000
       153    4       39.436784860000       5.577203488891       0.000000000000
       154    3       40.751344618245       7.436270890935       2.276884108583
       155    3       46.009582073755       6.506737831291       2.276884108583
       156    2       42.065903587755       6.506737831291       0.000000000000
       157    2       51.267820318000       5.577203488891       2.276884108583
       158    2       52.582380076245       7.436270890935       0.000000000000
       159    1       47.324141832000       5.577203488891       0.000000000000
       160    2       48.638701590245       7.436270890935       2.276884108583
       161    2       53.896939045755       6.506737831291       2.276884108583
       162    2       49.953260559755       6.506737831291       0.000000000000
       163    4       59.155177290000       5.577203488891       2.276884108583
       164    3       60.469737048245       7.436270890935       0.000000000000
       165    3       55.211498804000       5.577203488891       0.000000000000
       166    1       56.526058562245       7.436270890935       2.276884108583
       167    4       61.784296017755       6.506737831291       2.276884108583
       168    1       57.840617531755       6.506737831291       0.000000000000
       169    2       67.042534262000       5.577203488891       2.276884108583
       170    1       68.357094020245       7.436270890935       0.000000000000
       171    4       63.098855776000       5.577203488891       0.000000000000
       172    1       64.413415534245       7.436270890935       2.276884108583
       173    2       69.671652989755       6.506737831291       2.276884108583
       174    4       65.727974503755       6.506737831291       0.000000000000
       175    3       74.929891234000       5.577203488891       2.276884108583
       176    3       76.244450992245       7.436270890935       0.000000000000
       177    3       70.986212748000       5.577203488891       0.000000000000
       178    3       72.300772506245       7.436270890935       2.276884108583
       179    2       77.559009961755       6.506737831291       2.276884108583
       180    1       73.615331475755       6.506737831291       0.000000000000
       181    2        3.943678486000       8.365805233336       2.276884108583
       182    1        5.258238244245      10.224872635381       0.000000000000
       183    1        0.000000000000       8.365805233336       0.000000000000
       184    1        1.314559758245      10.224872635381       2.276884108583
       185    3        6.572797213755       9.295339575737       2.276884108583
       186    3        2.629118727755       9.295339575737       0.000000000000
       187    2       11.831035458000       8.365805233336       2.276884108583
       188    1       13.145595216245      10.224872635381       0.000000000000
       189    1        7.887356972000       8.365805233336       0.000000000000
       190    2        9.201916730245      10.224872635381       2.276884108583
       191    2       14.460154185755       9.295339575737       2.276884108583
       192    2       10.516475699755       9.295339575737       0.000000000000
       193    3       19.718392430000       8.365805233336       2.276884108583
       194    1       21.032952188245      10.224872635381       0.000000000000
       195    4       15.774713944000       8.365805233336       0.000000000000
       196    4       17.089273702245      10.224872635381       2.276884108583
       197    4       22.347511157755       9.295339575737       2.276884108583
       198    4       18.403832671755       9.295339575737       0.000000000000
       199    1       27.605749402000       8.365805233336       2.276884108583
       200    3       28.920309160245      10.224872635381       0.000000000000
       201    3       23.662070916000       8.365805233336       0.000000000000
       202    3       24.976630674245      10.224872635381       2.276884108583
       203    1       30.234868129755       9.295339575737       2.276884108583
       204    4       26.291189643755       9.295339575737       0.000000000000
       205    2       35.493106374000       8.365805233336       2.276884108583
       206    4       36.807666132245      10.224872635381       0.000000000000
       207    2       31.549427888000       8.365805233336       0.000000000000
       208    3       32.863987646245      10.224872635381       2.276884108583
       209    3       38.122225101755       9.295339575737       2.276884108583
       210    3       34.178546615755       9.295339575737       0.000000000000
       211    3       43.380463346000       8.365805233336       2.276884108583
       212    1       44.695023104245      10.224872635381       0.000000000000
       213    2       39.436784860000       8.365805233336       0.000000000000
       214    2       40.751344618245      10.224872635381       2.276884108583
       215    2       46.009582073755       9.295339575737       2.276884108583
       216    2       42.065903587755       9.295339575737       0.000000000000
       217    3       51.267820318000       8.365805233336       2.276884108583
       218    3       52.582380076245      10.224872635381       0.000000000000
       219    4       47.324141832000       8.365805233336       0.000000000000
       220    2       48.638701590245      10.224872635381       2.276884108583
       221    1       53.896939045755       9.295339575737       2.276884108583
       222    2       49.953260559755       9.295339575737       0.000000000000
       223    4       59.155177290000       8.365805233336       2.276884108583
       224    4       60.469737048245      10.224872635381       0.000000000000
       225    4       55.211498804000       8.365805233336       0.000000000000
       226    2       56.526058562245      10.224872635381       2.276884108583
       227    3       61.784296017755       9.295339575737       2.276884108583
       228    3       57.840617531755       9.295339575737       0.000000000000
       229    2       67.042534262000       8.365805233336       2.276884108583
       230    1       68.357094020245      10.224872635381       0.000000000000
       231    2       63.098855776000       8.365805233336       0.000000000000
       232    4       64.413415534245      10.224872635381       2.276884108583
       233    1       69.671652989755       9.295339575737       2.276884108583
       234    1       65.727974503755       9.295339575737       0.000000000000
       235    3       74.929891234000       8.365805233336       2.276884108583
       236    1       76.244450992245      10.224872635381       0.000000000000
       237    4       70.986212748000       8.365805233336       0.000000000000
       238    3       72.300772506245      10.224872635381       2.276884108583
       239    4       77.559009961755       9.295339575737       2.276884108583
       240    4       73.615331475755       9.295339575737       0.000000000000
       241    2        3.943678486000      11.154406977781       2.276884108583
       242    2        5.258238244245      13.013475662583       0.000000000000
       243    1        0.000000000000      11.154406977781       0.000000000000
       244    1        1.314559758245      13.013475662583       2.276884108583
       245    3        6.572797213755      12.083941320182       2.276884108583
       246    1        2.629118727755      12.083941320182       0.000000000000
       247    1       11.831035458000      11.154406977781       2.276884108583
       248    1       13.145595216245      13.013475662583       0.000000000000
       249    1        7.887356972000      11.154406977781       0.000000000000
       250    1        9.201916730245      13.013475662583       2.276884108583
       251    2       14.460154185755      12.083941320182       2.276884108583
       252    2       10.516475699755      12.083941320182       0.000000000000
       253    2       19.718392430000      11.154406977781       2.276884108583
       254    1       21.032952188245      13.013475662583       0.000000000000
       255    4       15.774713944000      11.154406977781       0.000000000000
       256    2       17.089273702245      13.013475662583       2.276884108583
       257    3       22.347511157755      12.083941320182       2.276884108583
       258    4       18.403832671755      12.083941320182       0.000000000000
       259    4       27.605749402000      11.154406977781       2.276884108583
       260    2       28.920309160245      13.013475662583       0.000000000000
       261    2       23.662070916000      11.154406977781       0.000000000000
       262    1       24.976630674245      13.013475662583       2.276884108583
       263    2       30.234868129755      12.083941320182       2.276884108583
       264    2       26.291189643755      12.083941320182       0.000000000000
       265    4       35.493106374000      11.154406977781       2.276884108583
       266    1       36.807666132245      13.013475662583       0.000000000000
       267    1       31.549427888000      11.154406977781       0.000000000000
       268    4       32.863987646245      13.013475662583       2.276884108583
       269    1       38.122225101755      12.083941320182       2.276884108583
       270    4       34.178546615755      12.083941320182       0.000000000000
       271    1       43.380463346000      11.154406977781       2.276884108583
       272    3       44.695023104245      13.013475662583       0.000000000000
       273    2       39.436784860000      11.154406977781       0.000000000000
       274    3       40.751344618245      13.013475662583       2.276884108583
       275    3       46.009582073755      12.083941320182       2.276884108583
       276    3       42.065903587755      12.083941320182       0.000000000000
       277    1       51.267820318000      11.154406977781       2.276884108583
       278    2       52.582380076245      13.013475662583       0.000000000000
       279    4       47.324141832000      11.154406977781       0.000000000000
       280    4       48.638701590245      13.013475662583       2.276884108583
       281    4       53.896939045755      12.083941320182       2.276884108583
       282    2       49.953260559755      12.083941320182       0.000000000000
       283    2       59.155177290000      11.154406977781       2.276884108583
       284    4       60.469737048245      13.013475662583       0.000000000000
       285    3       55.211498804000      11.154406977781       0.000000000000
       286    1       56.526058562245      13.013475662583       2.276884108583
       287    1       61.784296017755      12.083941320182       2.276884108583
       288    4       57.840617531755      12.083941320182       0.000000000000
       289    4       67.042534262000      11.154406977781       2.276884108583
       290    2       68.357094020245      13.013475662583       0.000000000000
       291    1       63.098855776000      11.154406977781       0.000000000000
       292    4       64.413415534245      13.013475662583       2.276884108583
       293    2       69.671652989755      12.083941320182       2.276884108583
       294    4       65.727974503755      12.083941320182       0.000000000000
       295    2       74.929891234000      11.154406977781       2.276884108583
       296    4       76.244450992245      13.013475662583       0.000000000000
       297    4       70.986212748000      11.154406977781       0.000000000000
       298    1       72.300772506245      13.013475662583       2.276884108583
       299    1       77.559009961755      12.083941320182       2.276884108583
       300    1       73.615331475755      12.083941320182       0.000000000000
       301    1        3.943678486000      13.943008722227       2.276884108583
       302    4        5.258238244245      15.802077407028       0.000000000000
       303    4        0.000000000000      13.943008722227       0.000000000000
       304    4        1.314559758245      15.802077407028       2.276884108583
       305    4        6.572797213755      14.872543064628       2.276884108583
       306    1        2.629118727755      14.872543064628       0.000000000000
       307    3       11.831035458000      13.943008722227       2.276884108583
       308    3       13.145595216245      15.802077407028       0.000000000000
       309    3        7.887356972000      13.943008722227       0.000000000000
       310    3        9.201916730245      15.802077407028       2.276884108583
       311    2       14.460154185755      14.872543064628       2.276884108583
       312    2       10.516475699755      14.872543064628       0.000000000000
       313    4       19.718392430000      13.943008722227       2.276884108583
       314    4       21.032952188245      15.802077407028       0.000000000000
       315    2       15.774713944000      13.943008722227       0.000000000000
       316    3       17.089273702245      15.802077407028       2.276884108583
       317    2       22.347511157755      14.872543064628       2.276884108583
       318    4       18.403832671755      14.872543064628       0.000000000000
       319    4       27.605749402000      13.943008722227       2.276884108583
       320    4       28.920309160245      15.802077407028       0.000000000000
       321    1       23.662070916000      13.943008722227       0.000000000000
       322    4       24.976630674245      15.802077407028       2.276884108583
       323    3       30.234868129755      14.872543064628       2.276884108583
       324    3       26.291189643755      14.872543064628       0.000000000000
       325    2       35.493106374000      13.943008722227       2.276884108583
       326    3       36.807666132245      15.802077407028       0.000000000000
       327    1       31.549427888000      13.943008722227       0.000000000000
       328    4       32.863987646245      15.802077407028       2.276884108583
       329    2       38.122225101755      14.872543064628       2.276884108583
       330    1       34.178546615755      14.872543064628       0.000000000000
       331    1       43.380463346000      13.943008722227       2.276884108583
       332    1       44.695023104245      15.802077407028       0.000000000000
       333    1       39.436784860000      13.943008722227       0.000000000000
       334    3       40.751344618245      15.802077407028       2.276884108583
       335    3       46.009582073755      14.872543064628       2.276884108583
       336    3       42.065903587755      14.872543064628       0.000000000000
       337    4       51.267820318000      13.943008722227       2.276884108583
       338    4       52.582380076245      15.802077407028       0.000000000000
       339    1       47.324141832000      13.943008722227       0.000000000000
       340    4       48.638701590245      15.802077407028       2.276884108583
       341    2       53.896939045755      14.872543064628       2.276884108583
       342    2       49.953260559755      14.872543064628       0.000000000000
       343    3       59.155177290000      13.943008722227       2.276884108583
       344    3       60.469737048245      15.802077407028       0.000000000000
       345    1       55.211498804000      13.943008722227       0.000000000000
       346    3       56.526058562245      15.802077407028       2.276884108583
       347    1       61.784296017755      14.872543064628       2.276884108583
       348    1       57.840617531755      14.872543064628       0.000000000000
       349    4       67.042534262000      13.943008722227       2.276884108583
       350    4       68.357094020245      15.802077407028       0.000000000000
       351    2       63.098855776000      13.943008722227       0.000000000000
       352    1       64.413415534245      15.802077407028       2.276884108583
       353    2       69.671652989755      14.872543064628       2.276884108583
       354    3       65.727974503755      14.872543064628       0.000000000000
       355    2       74.929891234000      13.943008722227       2.276884108583
       356    1       76.244450992245      15.802077407028       0.000000000000
       357    2       70.986212748000      13.943008722227       0.000000000000
       358    1       72.300772506245      15.802077407028       2.276884108583
       359    2       77.559009961755      14.872543064628       2.276884108583
       360    3       73.615331475755      14.872543064628       0.000000000000
       361    3        3.943678486000      16.731610466672       2.276884108583
       362    1        5.258238244245      18.590679151474       0.000000000000
       363    3        0.000000000000      16.731610466672       0.000000000000
       364    2        1.314559758245      18.590679151474       2.276884108583
       365    2        6.572797213755      17.661144809073       2.276884108583
       366    3        2.629118727755      17.661144809073       0.000000000000
       367    1       11.831035458000      16.731610466672       2.276884108583
       368    1       13.145595216245      18.590679151474       0.000000000000
       369    3        7.887356972000      16.731610466672       0.000000000000