LAMMPS data file via write_data, version 2 Aug 2023, timestep = 5034501, units = metal

38640 atoms
4 atom types

0.06807511406451731 78.80549460593963 xlo xhi
0.07495722319997099 128.20072558668832 ylo yhi
0.048915623043492305 63.70383176695409 zlo zhi

Atom Type Labels

1 Nb
2 Ta
3 Ti
4 V

Masses

1 92.90600000000001
2 180.948
3 47.88
4 50.942

Atoms # atomic

3 4 2.431915163790045 2.307519438302259 2.606285447547365 0 0 0
7 1 1.1816961746067722 0.4607830886027641 0.3363457113880343 0 0 0
1 3 1.10639187092366 3.2202755525659565 0.3268357268720644 0 0 0
4 3 3.7043449702798514 1.350259941350973 0.30198726715075336 0 0 0
5 3 4.979923330116091 3.1698486626975337 2.545095731925682 0 0 0
6 2 5.118318892798042 0.4229929555113112 2.460231975507515 0 0 0
9 3 7.6735188734071 1.2471987633006378 2.4824177676321093 0 0 0
11 4 6.330540695346577 2.2280526798496694 0.23330033515786952 0 0 0
12 3 8.900463762982351 3.066756026948333 0.2207392677816672 0 0 0
7406 2 8.988029088094235 0.27778321383199167 0.20257075938102048 0 1 0
8 2 7.603416960113212 4.0028863548140405 2.4865180834828053 0 0 0
10 4 10.21414228677689 2.100516179864742 2.457798548653767 0 0 0
14 3 12.837943566392426 3.029775414045969 2.4284210642591892 0 0 0
13 2 11.454026131200681 3.9792833348674392 0.2755016763851647 0 0 0
15 4 14.16302184951014 2.140601317423304 0.18415416326340456 0 0 0
16 3 11.579986235771052 1.2458984520661451 0.17656754444792205 0 0 0
7411 2 12.90616855071499 0.2779288997929963 2.4334838736974804 0 1 0
18 2 15.39470209420555 3.8820299648243686 2.5036034839192407 0 0 0
19 3 15.509361040733573 1.1959100111133774 2.419817157197608 0 0 0
21 4 18.11296660303773 2.086478623380076 2.4570516513760934 0 0 0
20 2 16.768546684619473 2.9906162617096976 0.20275472774339748 0 0 0
23 4 19.42084598742546 1.1721249391386626 0.21462126048560679 0 0 0
22 2 19.401289714836494 3.8928559354103562 0.19739167114255904 0 0 0
7417 2 16.782414654585093 0.24244804877436502 0.264812567650338 0 1 0
2 2 3.7156458794073424 4.147975631930069 0.26583363347885913 0 0 0
24 3 2.3463475879457203 5.074647672515073 2.54260002363815 0 0 0
25 4 1.0531362267330202 6.014118884789986 0.2863333446746286 0 0 0
27 2 2.3300675602942675 7.883849534255653 2.49887077664199 0 0 0
26 3 3.628829684471995 6.9139387576178155 0.26222838911395047 0 0 0
28 4 4.907931267444406 5.908715969995874 2.545451138236981 0 0 0
32 3 7.527868507528351 6.780220546089403 2.467635531627386 0 0 0
30 2 6.229547438290554 7.788872444300073 0.276643464169923 0 0 0
31 4 8.856233305805462 5.859778744057816 0.20621885646217514 0 0 0
29 3 6.297521300671921 5.01092576054471 0.2500170348932997 0 0 0
192 2 6.173332858275366 7.778621115239478 4.588628856051749 0 0 0
33 2 10.090076910501573 7.663695080912988 2.349278233825665 0 0 0
34 3 10.186172826566818 4.923423815664704 2.479464156613244 0 0 0
36 4 12.80956628170941 5.776846231871131 2.402472612162005 0 0 0
35 4 14.10825140759133 4.855834235363164 0.18901412487399144 0 0 0
37 3 11.506372643403527 6.723149088391746 0.19257108127054115 0 0 0
38 2 14.041070802369873 7.656471000514073 0.16841471105476452 0 0 0
43 2 19.401815098475364 6.662352952866152 0.20042793045953547 0 0 0
40 3 15.403864573221966 6.699933478154666 2.463511003801587 0 0 0
41 4 18.071566187210784 4.758563250989288 2.456844965337952 0 0 0
42 1 18.01542785901806 7.565642515315463 2.4107415949440827 0 0 0
44 2 16.731452391833532 5.757452437887048 0.21199389808788408 0 0 0
47 3 2.244872701644895 10.641174121292298 2.4651746413639253 0 0 0
48 2 4.817261908795583 11.567528955090426 2.444239099752713 0 0 0
50 2 0.8812123297617123 11.57668654418314 0.2316685075776401 0 0 0
46 4 3.5794690312022612 9.721783410922082 0.22813201912500566 0 0 0
49 3 1.0390880482895237 8.839909024269689 0.2621602878336214 0 0 0
45 3 4.888227221863285 8.79611013077047 2.4528717445183665 0 0 0
53 3 6.148651412897894 10.588325626161152 0.2198385595897434 0 0 0
51 4 7.490733949392699 9.661430764588768 2.4512843519230296 0 0 0
214 1 8.712113724958467 11.518954357159092 4.632664343183558 0 0 0
55 2 8.71893673428433 11.502064278378924 0.1554921908554892 0 0 0
54 3 8.822672356978273 8.715179531758826 0.17130566115019047 0 0 0
52 3 10.057951264467961 10.518477851038718 2.4160364666365552 0 0 0
56 3 12.731133764351826 8.587932701538929 2.4283032628984413 0 0 0
57 1 12.61339542432531 11.407493754927755 2.3855283041502684 0 0 0
58 3 14.04167373720137 10.445243027242828 0.19473503238543236 0 0 0
59 4 11.412635852004186 9.597110840656883 0.15110818982238672 0 0 0
61 1 15.342696870675299 9.437287747339504 2.3754681468204124 0 0 0
63 1 18.009694030979258 10.389901049244129 2.4225190992519736 0 0 0
65 4 16.769717844246873 8.505387175699598 0.08645610660875097 0 0 0
64 2 19.40429740507225 9.439115242592987 0.13835540699656534 0 0 0
73 3 0.896194300612348 14.392210607901944 0.19443484535924493 0 0 0
69 4 2.2328009276584075 13.449970207318385 2.4462816334795434 0 0 0
70 3 4.793566193309404 14.349340327483258 2.4529874961096128 0 0 0
68 3 3.507268101503671 12.534248158839553 0.21147224149740687 0 0 0
72 2 3.4896913180680804 15.353302958817613 0.18963576903577048 0 0 0
75 3 8.63048447948577 14.27299921532883 0.18961732267591597 0 0 0
74 3 7.43267794950102 12.460191163993288 2.454885331824999 0 0 0
77 2 7.3644785054704 15.292847608701244 2.4255392781817275 0 0 0
76 4 6.093387446287784 13.415328276654835 0.20514661818902954 0 0 0
78 4 9.978703408628942 13.351527273571751 2.403423683429849 0 0 0
82 1 12.604916811441305 14.245591365596432 2.3899957360139905 0 0 0
62 3 11.342625033904195 12.3749842806546 0.16195073540362442 0 0 0
84 2 11.123612050938823 15.194442178270705 0.07899145656177298 0 0 0
88 1 16.632038743780125 14.149285428199518 0.11709402135016023 0 0 0
60 1 15.336188207860037 12.304049265287416 2.4127914326315123 0 0 0
83 1 15.294166623818889 15.138459795598084 2.411454341042234 0 0 0
85 1 17.978476348453256 13.223181523190704 2.426718106283253 0 0 0
67 1 19.344670505643265 12.249330259141026 0.08711070450448996 0 0 0
87 1 19.29314657333078 15.079374723218839 0.12944670925516788 0 0 0
71 3 2.216872190874204 16.230544518134767 2.468552237838739 0 0 0
92 2 2.2472803199539055 18.963342205288065 2.5408403747482273 0 0 0
94 4 4.795907657850654 17.151791801016426 2.4878084039045953 0 0 0
90 3 3.4769170758460555 18.11783992838594 0.23740854399324654 0 0 0
89 4 0.9063797017947557 17.25573529051639 0.23943506363585218 0 0 0
91 4 0.8968254262542548 19.969204873105053 0.2569958323002167 0 0 0
93 3 4.79463428613519 20.014617078005905 2.5675444700003274 0 0 0
96 3 7.340771582417717 18.07947573050227 2.4906272634773083 0 0 0
97 2 9.839918898446262 18.992614669342508 2.3496429402170866 0 0 0
95 2 6.041770113946858 19.076250410605844 0.25080248345016143 0 0 0
98 4 8.657742893673767 17.13172529942691 0.17633605603158173 0 0 0
80 3 6.081659569905263 16.256646494982885 0.18611350478399186 0 0 0
2340 3 8.654975881481514 19.933516360057105 0.15760488343816972 0 0 1
79 3 9.975686269006266 16.17885020203707 2.4366159933079277 0 0 0
99 1 12.541981937515764 17.05964310328348 2.3827505028058504 0 0 0
100 1 12.5538342780667 19.905955288225698 2.416540381851666 0 0 0
2346 3 11.288405884334884 18.016417657318787 0.15428015785715823 0 0 1
103 1 13.875793380584046 18.963256339671624 0.06051225853257371 0 0 0
86 1 17.94914284468066 16.065331104243448 2.452717668869996 0 0 0
101 1 15.27026681318132 17.970302471715552 2.4364113462552908 0 0 0
105 1 17.91869004381487 18.900710819803958 2.4467630334506683 0 0 0
106 1 16.53127533432296 19.862451808358237 0.08360451439292742 0 0 0
104 1 16.558938584664627 17.013656824523366 0.07382011362478512 0 0 0
107 1 19.255573545748963 17.956721260718858 0.13775511078042157 0 0 0
108 4 3.4582507234276627 20.887967878452177 0.26094915673725083 0 0 0
110 4 3.4786725185380774 23.61920186385375 0.2823671101068053 0 0 0
111 2 2.2189876256654464 21.781449991489996 2.5335693369656127 0 0 0
112 2 4.813799521613864 22.68587731998898 2.5198191349884693 0 0 0
109 2 0.8878112060488994 22.714498159364997 0.25870838686687425 0 0 0
114 4 7.419695314536441 20.884346486783574 2.5351303576866178 0 0 0
116 4 7.377048960730688 23.615362330263366 2.5672275219075433 0 0 0
113 2 8.66856253390214 22.675049853269883 0.22990289796156424 0 0 0
115 3 6.06577001445938 21.831326922843267 0.2770027569090656 0 0 0
117 3 9.957469934557697 21.781539270030297 2.507982644983084 0 0 0
122 3 11.268058830078168 23.575053144570294 0.2100233377497923 0 0 0
118 1 12.518969794562022 22.701508467340705 2.4029052339516856 0 0 0
121 3 13.878638961605414 21.731058939266568 0.120337859913076 0 0 0
2362 4 11.27758731100552 20.818706569930043 0.13549234547737243 0 0 1
2370 1 19.158284830320746 23.600355670647712 0.07358518049653504 0 0 1
119 1 15.169833600927422 23.601018918045266 2.4006477833518622 0 0 0
120 1 15.21149127119407 20.813102772489678 2.404091977109745 0 0 0
123 1 17.897153889872598 21.722830239108074 2.4524637356338466 0 0 0
1186 4 16.91819519543035 28.330050738323596 27.529512015311447 0 0 0
124 4 2.2077578785738012 24.522298321460298 2.5371948902439665 0 0 0
126 2 3.480656097161038 26.349438616152028 0.2911295650346176 0 0 0
127 4 2.1964561952086497 27.27926146766261 2.5513238020140814 0 0 0
128 2 4.792187337389581 25.44191835926396 2.566181213813628 0 0 0
125 2 0.8843300492333621 25.452630611777007 0.28514283006013436 0 0 0
132 4 6.062334998921832 24.53371008803963 0.3070697063932748 0 0 0
134 4 6.042256726725255 27.26019704167431 0.32617516478658753 0 0 0
136 2 7.403270402426699 26.353848814072325 2.556377799822846 0 0 0
133 3 8.573343442071257 25.416819136682808 0.2874095956290409 0 0 0
137 3 9.904512212514597 27.28067395119735 2.6252039733338632 0 0 0
131 4 9.943175107702952 24.46970765423756 2.5341159203180004 0 0 0
142 4 13.84610871463126 24.48492148331896 0.1163645594107521 0 0 0
138 2 11.11969798970511 26.35090420669419 0.2571982068948193 0 0 0
140 3 12.530569679845431 25.40796248804522 2.459225681997179 0 0 0
139 4 12.530572815254127 28.138730397307754 2.460363554202975 0 0 0
2388 3 13.834856310492613 27.20675507322756 0.14112117585932327 0 0 1
141 1 15.130694310050913 26.335193828778856 2.370839145667609 0 0 0
144 1 17.85868156561533 24.539278068085466 2.3966758052410055 0 0 0
145 1 17.87333581724768 27.287477478856513 2.429465453035897 0 0 0
143 3 16.4899896113391 25.403138757762036 0.07810825026283008 0 0 0
2398 1 16.469386207488423 28.10196990752552 0.05319801416096955 0 0 1
130 4 0.8713586669970185 28.19527302577323 0.2769800669726581 0 0 0
129 4 4.783643334234238 28.177865157024776 2.589679712816643 0 0 0
147 3 3.42269199967029 31.747584141961763 0.28502529747379735 0 0 0
146 2 3.46074762804568 29.09349359631074 0.31068709591756394 0 0 0
148 2 2.189530716020251 30.014408114103777 2.565956931517596 0 0 0
149 4 4.800443287772891 30.935960880354912 2.6467369709047217 0 0 0
150 4 0.8474163435077396 30.952921542010746 0.2518648735688464 0 0 0
135 4 8.57887866116067 28.2017124824692 0.27168133092971436 0 0 0
151 2 7.356144631790586 29.093662926417057 2.6109362424469853 0 0 0
152 2 6.042395389850031 29.97667359634796 0.3274760211941185 0 0 0
154 4 7.356043898563812 31.82564495264194 2.608482035230254 0 0 0
153 4 8.553482485939123 30.928311843562863 0.31964150558400034 0 0 0
158 1 11.175979081528403 31.781121976518154 0.26370866014269695 0 0 0
156 1 13.83420784458197 29.949658254563595 0.18615678123021454 0 0 0
155 2 9.946682092405913 29.96461846391443 2.5767309349027068 0 0 0
157 3 11.22347626942799 29.0776122186352 0.23477381753792909 0 0 0
159 1 12.523025759529268 30.961386477970528 2.589363288804286 0 0 0
161 1 15.17084843974361 29.094290926818672 2.446681170083069 0 0 0
164 1 17.89676508496912 30.065901891734896 2.442275721298149 0 0 0
160 1 15.22532890119183 31.902139715114593 2.5056666080885592 0 0 0
165 1 16.562167656256864 30.972989512842705 0.14798429054990153 0 0 0
163 1 19.220170418753334 29.13188588008804 0.0936717053736732 0 0 0
162 1 19.279929747652695 31.951972104851414 0.14835312660648967 0 0 0
170 3 3.7192725627120855 1.270141062433234 4.795788806039401 0 0 0
7573 1 1.1159883699911737 0.42456304153942154 4.9320035889334415 0 1 0
167 3 1.0062109927729255 3.240122770031336 4.851424654003582 0 0 0
169 1 2.378490015504755 2.3527478362060146 7.058100137538235 0 0 0
171 3 4.938878551987951 3.063053738970191 7.067550503540144 0 0 0
166 1 4.997861851516782 0.3042207652004562 7.034452202659204 0 0 0
7580 2 8.915962380814157 0.3019826537547658 4.747768919196651 0 1 0
172 4 6.298425517502276 2.193003674165611 4.79501647182762 0 0 0
173 3 8.857295030326437 3.069444403289947 4.778738152566548 0 0 0
175 3 7.579383356141824 1.2014318859689872 7.04715872014747 0 0 0
174 3 7.537496725676953 4.0109418808180255 7.059463765485639 0 0 0
17 2 11.466442364988486 3.860850344462137 4.641491207894522 0 0 0
7585 2 12.792919056575936 0.19458713454756957 6.9815744045633235 0 1 0
177 4 14.137310369731248 2.063920702586344 4.752639397899827 0 0 0
179 3 11.538534783337177 1.146324788752125 4.7227756799043386 0 0 0
176 4 10.166610811217982 2.11623471347569 7.011349049945519 0 0 0
178 3 12.798406427217166 2.9725829119859015 7.015215686302244 0 0 0
7591 2 16.82165841481855 0.24434577497424356 4.645408692094215 0 1 0
183 3 16.736295098032507 2.967960565431335 4.767319004839878 0 0 0
186 3 19.500513904830402 1.1189671926249338 4.775478776589107 0 0 0
185 2 19.35781653759704 3.7780914515319948 4.778441342110152 0 0 0
181 3 15.4433632293006 1.1234467702347 6.998029379174049 0 0 0
182 1 15.4153346386753 3.8057746943461312 7.020673629207548 0 0 0
184 4 18.09326166039797 1.996882603997869 7.084384914461288 0 0 0
189 3 3.561140518139561 6.893818908516108 4.805687761629406 0 0 0
168 3 3.636835459426208 4.094965800591429 4.817796935411916 0 0 0
188 4 1.000028196534708 6.0244262432196445 4.769900036429453 0 0 0
187 3 2.2724106888007336 5.080366289532798 7.121937674174725 0 0 0
190 1 2.212113823307103 7.833347172763493 7.091241403588266 0 0 0
191 1 4.954756476340876 5.7531307243747625 7.006443980920093 0 0 0
193 3 6.27432714640669 4.963833555112203 4.732952725642819 0 0 0
194 4 8.83436135249595 5.828600074007753 4.737655892649087 0 0 0
195 3 7.517888298970606 6.813283955182461 6.9725087169420465 0 0 0
364 1 8.737824647554634 5.730289736667695 9.185670235981929 0 0 0
39 3 11.437680177366078 6.709399280214074 4.685951814191738 0 0 0
199 1 14.026841583101357 7.59004936386395 4.675323160700117 0 0 0
196 1 10.114340114432807 7.637208186906515 6.941609529009081 0 0 0
198 3 14.095303724039082 4.840492219478745 4.730132210133386 0 0 0
197 3 10.187380665693452 4.8737273956055756 6.978446641202673 0 0 0
200 1 12.74002512155807 5.716042095626129 6.9471483726246 0 0 0
203 1 16.71045189765517 5.689079821450501 4.697709686055739 0 0 0
205 1 19.402944128928997 6.624939877580132 4.754715150309618 0 0 0
201 1 15.421384651708072 6.697277032650526 7.079353427944075 0 0 0
202 1 18.08924202505528 4.7292915516635885 7.1021157168880835 0 0 0
204 1 18.06646191180183 7.595211883299929 7.098972616401029 0 0 0
206 2 0.9741219850820705 11.591330974907537 4.677336016117202 0 0 0
208 3 0.9729601016208603 8.782418835733669 4.781147925711496 0 0 0
209 4 3.55248206320052 9.67445543243992 4.753453615903845 0 0 0
210 3 2.228250090210473 10.606925917270493 6.9898253760391125 0 0 0
211 1 4.784398123332543 11.533325856050315 6.9553862388170575 0 0 0
207 3 4.849126363067762 8.677535230635243 7.005484007688861 0 0 0
213 3 8.805359976146509 8.658774112268418 4.688643697846238 0 0 0
215 3 6.147973853873473 10.600445389406874 4.708573840306926 0 0 0
216 1 7.417778883737522 9.526716016024452 6.904777791624198 0 0 0
219 1 11.362342787055766 9.486407431353788 4.62380446297292 0 0 0
217 1 10.097385406713027 10.507180766594653 7.032140634478871 0 0 0
221 1 14.033814250213561 10.456260717973763 4.747993396026967 0 0 0
220 1 12.767374581783939 8.594068869346904 7.071260023976736 0 0 0
222 1 12.721566504844425 11.41329877854329 7.075908422373093 0 0 0
228 1 16.67528051330909 11.363868494531788 4.763621395107903 0 0 0
227 1 16.7194646109094 8.545387232951205 4.74779492340045 0 0 0
230 1 19.356646957376984 9.453278929745482 4.780588297810778 0 0 0
224 1 15.398004298671772 9.505029969319832 7.124792370160229 0 0 0
229 1 18.034732841015476 10.414052609327705 7.132072224655973 0 0 0
232 2 3.5237447754942113 15.297306312654952 4.724293744364896 0 0 0
234 3 0.9552137588962422 14.338841663394415 4.702252364989646 0 0 0
231 3 3.5601885440611682 12.48632440927692 4.747906015805387 0 0 0
233 4 2.2441646706441363 13.407987453141077 7.001297561131189 0 0 0
236 3 4.8450431096733775 14.344531928872527 6.99372351519054 0 0 0
238 3 8.701382905979068 14.327699927830743 4.689520154313189 0 0 0
237 4 6.117977211096954 13.414325069815694 4.6999259648835165 0 0 0
218 1 7.429941552842121 12.472263929482068 6.96857886720541 0 0 0
239 1 7.399560798679682 15.274662014524548 6.950277676101508 0 0 0
244 1 11.254722693123808 15.230555080945017 4.679027167935543 0 0 0
240 1 10.047757044508657 13.381528313431083 6.993181501489212 0 0 0
243 1 13.99887048867107 13.291032751100493 4.747081519124113 0 0 0
223 1 11.32747192365056 12.40097966949677 4.699480452930161 0 0 0
246 1 12.698232296599514 14.24966354604858 7.075077349649145 0 0 0
226 1 19.329906213356026 12.28678986353503 4.802062337718278 0 0 0
250 1 16.652574679530566 14.191996962532901 4.771810275258634 0 0 0
248 1 19.302761120988208 15.112077809025273 4.79175436592352 0 0 0
225 1 15.362710766530368 12.320736441337854 7.117741516313017 0 0 0
247 1 15.336940830741375 15.150978574437726 7.10513684362318 0 0 0
249 1 18.007936189145816 13.240699730652635 7.126783125990849 0 0 0
251 1 17.98780953080788 16.07120816667311 7.1253679293256935 0 0 0
235 3 2.2602920618013873 16.201465897369257 6.984114971529702 0 0 0
252 4 0.9353739953111777 17.1507290593024 4.722723384167731 0 0 0
253 3 3.529026097448068 18.088627441344734 4.799660123959975 0 0 0
255 2 2.1896425964783077 18.919250470983865 7.0410114792083265 0 0 0
257 4 4.804020310316963 17.195469938414146 7.02345846093591 0 0 0
256 4 4.844045980590869 19.93120269892947 7.0702264687627805 0 0 0
254 3 1.001777938009177 19.999010116367952 4.773923554434316 0 0 0
258 4 8.679545998497058 17.155086712500815 4.660068601992469 0 0 0
242 3 6.134609188654414 16.234813717701993 4.7825507264310625 0 0 0
260 4 8.618465370954942 19.90566123300431 4.789808913252135 0 0 0
259 2 6.064357147692936 18.976038966317272 4.735733753875194 0 0 0
261 2 7.420125421759117 18.069504307535933 7.037088257506912 0 0 0
102 1 11.270147670156154 18.035478912875977 4.7046796867658855 0 0 0
245 1 13.979723817242359 16.104023667802483 4.746395454963037 0 0 0
262 1 9.991217220706245 18.993090671076352 7.042336891491232 0 0 0
241 1 10.021921225736845 16.20324331081103 7.006159034048732 0 0 0
264 1 13.93430118447738 18.942253376428678 4.746440086761579 0 0 0
263 1 12.662614434668978 17.074157422732988 7.0704853960081735 0 0 0
265 1 12.607565758127633 19.901983057216192 7.079735877896706 0 0 0
267 1 16.622054587713134 17.02380950821419 4.767398477370961 0 0 0
270 1 19.285292687955742 17.947462606213627 4.791365217660123 0 0 0
266 1 15.310925639700956 17.985130458281805 7.102650264757999 0 0 0
269 1 17.96776152649143 18.906451021513416 7.11876686060762 0 0 0
268 1 16.60695531887968 19.850503562482498 4.76963524055737 0 0 0
271 4 3.559329600727859 20.84495148749264 4.86230040389564 0 0 0
273 4 3.521848399027074 23.612838084811795 4.803437242018197 0 0 0
274 2 2.2406712895386542 21.76384063904623 7.038558665784515 0 0 0
275 2 4.842184707878223 22.707591578279743 7.073866588227891 0 0 0
272 2 0.9144612907478781 22.68713545005141 4.7676011973777035 0 0 0
276 4 7.367644483439929 20.855514032783404 7.07544779069297 0 0 0
277 2 6.104640925509271 21.777450035914054 4.807385214172029 0 0 0
278 2 8.673000695936325 22.68765265550785 4.809099523870907 0 0 0
279 4 7.4163119632280505 23.60822248816278 7.098862746030852 0 0 0
280 2 9.988162343992109 21.766506998055196 7.088729952994027 0 0 0
283 1 13.886583026778249 21.758291447296372 4.771732337465204 0 0 0
281 1 11.194620361337954 20.858631434454868 4.729126150460782 0 0 0
282 4 11.20418116274777 23.639525195953247 4.826102657882536 0 0 0
284 1 12.575688259373802 22.689563953709754 7.102276049499333 0 0 0
290 1 19.24848989360697 23.598142099656602 4.778103834307603 0 0 0
287 1 19.262463125332687 20.782343090851366 4.7844028403612535 0 0 0
288 1 16.566282488296025 22.67356906921132 4.770738200927339 0 0 0
285 1 15.232746110678972 23.606996038162603 7.11001699742723 0 0 0
286 1 15.283540808568159 20.802890872971627 7.103744664618147 0 0 0
289 1 17.946058529921693 21.731012266388746 7.1183517571169554 0 0 0
291 4 2.2474792881927126 24.514240609192203 7.055763169716514 0 0 0
292 2 0.9361474152310785 25.449960296569976 4.778848502412572 0 0 0
294 2 3.516749905382877 26.358012058367038 4.819837889337899 0 0 0
295 4 2.2440554584536208 27.277175747187854 7.0637690137871525 0 0 0
296 2 4.838843415520989 25.44593815692308 7.087498149910195 0 0 0
299 4 6.109542106652286 24.52271992424896 4.826422908605793 0 0 0
300 2 8.664214147641811 25.450363089595673 4.847066492156936 0 0 0
301 4 6.094244036930083 27.274413954984528 4.852118747763081 0 0 0
303 2 7.40768725751015 26.364242841277687 7.1299266400987795 0 0 0
298 4 9.956367698738886 24.55874337328147 7.112154468546517 0 0 0
304 4 9.984600052939118 27.287920366144046 7.145775582932384 0 0 0
305 1 13.821222580060295 24.577728406091964 4.749087161993841 0 0 0
307 1 13.848173004167645 27.30100139903311 4.833098916775187 0 0 0
306 2 11.237376587115186 26.377137595600434 4.787308604285918 0 0 0
309 2 12.549106993505102 25.41826161923531 7.114062674220719 0 0 0
313 1 16.551094413116587 25.46089172633811 4.781698548008238 0 0 0
312 1 19.247223165955283 26.39069120794139 4.779642058179045 0 0 0
310 1 15.210892663370448 26.404328460154883 7.134816815668516 0 0 0
311 1 17.933945547068095 24.537033663882525 7.119446215377411 0 0 0
315 1 17.919963712792875 27.33172446181546 7.1288425374237745 0 0 0
293 4 0.9142726655434542 28.19830558308511 4.795507047387856 0 0 0
297 4 4.832833276486392 28.195576430755295 7.1102768411363 0 0 0
316 2 3.5079311104215174 29.10108966428244 4.841709159323636 0 0 0
318 4 3.4947588761445516 31.838417374880247 4.862658752225314 0 0 0
319 2 2.238397861557311 30.027707942458015 7.070888900983028 0 0 0
320 4 4.837347388075262 30.95429236948083 7.12695475361021 0 0 0
317 4 0.922439477228666 30.97842791056219 4.827864995292809 0 0 0
302 4 8.653891551777939 28.223770676201337 4.930439289139683 0 0 0
321 2 7.409540141982911 29.114437036848322 7.157871656313541 0 0 0
322 2 6.092268071951673 30.023775099767636 4.882180684880752 0 0 0
323 4 8.674085840931966 30.945673241743556 4.890150904614941 0 0 0
324 4 7.431966737835679 31.85107799230397 7.174099011986516 0 0 0
308 4 12.496330224321872 28.215775796823387 7.160244943123143 0 0 0
325 2 9.981742340710966 30.037023439899922 7.181682571947153 0 0 0
326 2 11.26529808901622 29.131521695958373 4.878685946790818 0 0 0
328 1 13.848562880631185 30.049292038982912 4.849202639229824 0 0 0
329 4 12.531161976468635 30.92290719598306 7.2305814031564095 0 0 0
327 4 11.208039084475386 31.86146481647176 4.937676183634356 0 0 0
314 1 16.5454730136055 28.222098437279726 4.796746671846621 0 0 0
335 1 19.289867803631978 31.957352531266903 4.808453499664512 0 0 0
333 1 16.572547671623113 30.98349888188559 4.817749842072192 0 0 0
332 1 19.262315143208095 29.179811219767572 4.790566361925314 0 0 0
331 1 15.180117934162562 31.889585966733037 7.169298644326867 0 0 0
330 1 15.153379208422624 29.1625736139576 7.162049224565704 0 0 0
334 1 17.92079197237057 30.09982926738747 7.141125700490882 0 0 0
338 3 0.9871848326431331 3.1780875521711915 9.410019800752021 0 0 0
337 3 3.665275387534464 1.301148640429724 9.35690525344319 0 0 0
340 3 2.33144546225632 2.1634583012906248 11.725253108258656 0 0 0
336 1 1.0608675644359435 0.41537945765246975 9.515546635396342 0 0 0
342 1 4.93787002383211 0.41141896639693604 11.62421449299849 0 0 0
341 3 4.941331661101802 3.1478018155598 11.669796875537116 0 0 0
343 1 6.262959613524112 2.263417531059327 9.258639676419296 0 0 0
344 3 8.875319240734438 3.017438182713436 9.334766838579279 0 0 0
346 4 7.578562940532293 1.1612343948473285 11.657414807903045 0 0 0
345 1 7.495221081110046 3.9370905526632725 11.714642256678513 0 0 0
7749 2 8.932062053464318 0.20792757564381686 9.283291533876351 0 1 0
180 1 11.47490013571874 3.839502032159469 9.297876112735555 0 0 0
350 3 11.506267394619682 1.156518103864414 9.287916707441196 0 0 0
347 3 10.156320915037183 2.0744336790014968 11.649265135324953 0 0 0
348 4 14.11969137660068 2.000968082411758 9.322327434975174 0 0 0
349 3 12.80841479580373 3.061009031230488 11.58647858710021 0 0 0
352 3 12.771788951090961 0.30280841167412775 11.62209529271581 0 0 0
7764 3 16.77419693801051 0.27860198292346605 9.297887350185745 0 1 0
354 3 16.69186283663174 3.007300316896917 9.315702334839663 0 0 0
351 3 15.41782628545489 1.1842769753197702 11.604584473701228 0 0 0
355 3 18.053620828787203 2.156551138095547 11.648161485279793 0 0 0
357 4 19.355828389754873 1.2018586998598302 9.344866071440839 0 0 0
356 3 19.339812002401036 3.905531627095036 9.39724079846954 0 0 0
353 3 15.455441289902256 3.9835679905453074 11.71304371326754 0 0 0
339 4 3.537851843819731 4.080575268289634 9.484347782778846 0 0 0
362 2 0.9351642651618678 5.987107525055501 9.539029973684803 0 0 0
358 3 2.2578670126941076 4.928779881217581 11.716348297407574 0 0 0
359 3 3.5636753808442667 6.842992871738219 9.350689426742024 0 0 0
360 4 2.254439808821739 7.8103343309207975 11.634067831417878 0 0 0
361 2 4.722610375291096 5.943194799092833 11.740158812743944 0 0 0
365 1 6.103148997160919 7.7226873763639 9.365593449900036 0 0 0
363 3 6.17028790068761 4.973574113354289 9.429779667285434 0 0 0
366 1 7.472478777562378 6.778191247926239 11.676246494799683 0 0 0
370 1 11.479814009149022 6.731645817385655 9.361977214980472 0 0 0
367 1 10.151383513388842 7.688825198095671 11.686658912872034 0 0 0
368 1 10.177049452231909 4.802039201871137 11.708595690642785 0 0 0
369 1 14.144475961504154 4.787062113846904 9.418786134495845 0 0 0
371 1 14.124113489960315 7.662399432969331 9.465047657383531 0 0 0
372 1 12.858194054947202 5.778624076632762 11.763105189203626 0 0 0
376 2 15.554632730097069 6.716250524162386 11.844188102849909 0 0 0
373 4 18.100030880841764 4.8622721768054395 11.74842842175687 0 0 0
374 1 16.766129308615476 5.714571143668056 9.475024808014519 0 0 0
375 3 18.093511638109458 7.663899729736084 11.765688158678984 0 0 0
377 1 19.411798087536145 6.673710165869271 9.538392824988565 0 0 0
212 1 0.9717595905762517 11.472008141582808 9.259066268398675 0 0 0
379 1 3.5140400270621392 9.623139433112451 9.343211495503263 0 0 0
383 3 0.9032855653133477 8.7499358264351 9.31533352678872 0 0 0
380 3 2.247929407023298 10.541251701423985 11.61686708066814 0 0 0
381 1 4.814235145691867 11.454648695666394 11.703544920203212 0 0 0
378 3 4.8790220359807925 8.693138989689581 11.668700945483888 0 0 0
385 1 6.1814227486352555 10.561540906922888 9.328726971943693 0 0 0
386 1 8.799031997271255 11.477009408811574 9.34562263572566 0 0 0
384 1 8.832933514710394 8.63935861312729 9.335120647555364 0 0 0
387 1 7.473232900755876 9.546291798689625 11.721673542648519 0 0 0
388 1 10.190887197884422 10.496215489910096 11.746458783353345 0 0 0
390 1 11.463463463786798 9.548581301479139 9.411794859075211 0 0 0
389 1 12.822416793163944 8.628844154914264 11.762928611872306 0 0 0
391 1 14.125798545347033 10.4447589527565 9.491772713979765 0 0 0
392 1 12.820284952093472 11.417499712238413 11.795238129221543 0 0 0
393 4 15.502214529121924 9.514423584338282 11.871221423939328 0 0 0
394 1 16.754330974201128 8.563332545549542 9.515878294203754 0 0 0
395 1 16.71876890931083 11.353624868856853 9.51171655793415 0 0 0
396 2 18.173966089463327 10.397280171460972 11.894939344721386 0 0 0
397 1 19.36596791919422 9.480298638227623 9.517963576010155 0 0 0
403 3 0.9287252594459561 14.279253421915868 9.2736079745875 0 0 0
399 2 3.5208952523611425 15.37826210478001 9.243253550474357 0 0 0
382 3 3.5455195290647774 12.458599850299336 9.28321392378087 0 0 0
401 1 2.300874101510948 13.368358974691573 11.568100914861809 0 0 0
402 3 4.882996058909697 14.355297771389875 11.631548648092409 0 0 0
407 1 8.781487448409955 14.340682733974468 9.372912495793383 0 0 0
404 1 7.522110251418767 12.430659993340788 11.686895406287734 0 0 0
405 1 6.039402813221468 13.486080584447198 9.333350541547379 0 0 0
408 1 7.458539277988063 15.342379310765178 11.69888484562501 0 0 0
409 1 10.155877252194305 13.33738985342336 11.75125083396385 0 0 0
412 1 11.435623633929453 12.383775663292363 9.41147319702725 0 0 0
413 1 14.064853279619175 13.279683855488905 9.453747305800645 0 0 0
414 1 11.400777275812391 15.225024652208216 9.415078447505174 0 0 0
416 1 12.79036950101445 14.254470341946428 11.825002835753986 0 0 0
415 1 14.033026860290567 16.10654049985158 9.437342456480673 0 0 0
398 1 19.37171827149253 12.2715810811709 9.545628992327723 0 0 0
411 1 15.421389147958461 12.328547967259407 11.814121364148573 0 0 0
417 1 15.36777286327888 15.150976154584791 11.813235247534564 0 0 0
418 1 18.051020696690887 13.229344835050856 11.850116807904072 0 0 0
419 1 16.70229633372491 14.194120204642026 9.467639814418735 0 0 0
421 1 19.33733615711585 15.126986000080892 9.483703765161309 0 0 0
400 3 2.2917822114434623 16.174847858178147 11.611022909227685 0 0 0
423 3 1.0057200330823313 19.93459660660487 9.23394983148853 0 0 0
424 3 3.582326600082322 18.09044783735751 9.231528680413843 0 0 0
422 4 0.9433230006904537 17.083152051749025 9.287903334361436 0 0 0
425 2 2.392377686239561 19.005875018986465 11.443136187401144 0 0 0
426 3 4.956140753147136 19.95632709768871 11.59307732021369 0 0 0
427 4 4.890055140103494 17.137578295072206 11.615695223988059 0 0 0
406 3 6.187008468979291 16.227399396624584 9.296596171998697 0 0 0
428 1 8.70950613633156 17.191549172403114 9.402622876726124 0 0 0