LAMMPS data file via write_data, version 2 Aug 2023, timestep = 50062, units = metal

38640 atoms
3 atom types

0.41480863925301253 78.45876108074786 xlo xhi
0.6920788232018085 127.5836039867994 ylo yhi
0.3341755102768914 63.418571879723686 zlo zhi

Masses

1 92.90600000000001
2 47.88
3 50.942

Atoms # atomic

4 3 1.6187762689324423 2.4283415853170975 2.5624010949642355 0 0 0
6 3 3.025232512815006 1.5917757956238692 0.3627038477018676 0 0 0
1 1 4.355834269118756 0.7097806762666993 2.6446328276734516 0 0 0
61 1 4.312095980389443 3.3379238206261173 2.621712417799999 0 0 0
2 2 5.571615271472658 2.443574191506522 0.39268214838771315 0 0 0
5 3 6.993351976721025 1.6064652380633302 2.7534398655240415 0 0 0
10 2 9.501298808860623 2.42065225014504 2.6882776052600055 0 0 0
69 1 8.235031436035513 3.2980175776767457 0.3877217444922426 0 0 0
12 2 10.816950551834196 1.5380705646341515 0.37331639697693236 0 0 0
67 1 12.042343273791898 3.3996241962819043 2.657381066286781 0 0 0
11 1 14.749772198063765 1.5750523746546579 2.6608876511642108 0 0 0
16 1 17.381737185458324 2.4727446534736734 2.641201639107806 0 0 0
64 1 1.7450496840068854 5.185618480034524 2.624255021778723 0 0 0
66 3 3.10946042376372 4.313812270791751 0.39024071466543353 0 0 0
65 3 6.857884823810682 4.256681260696421 2.689435478457032 0 0 0
121 1 4.256374337459581 6.162527013575673 2.6527381201853855 0 0 0
62 1 5.607421403910507 5.1831296914782286 0.38264538343194415 0 0 0
70 1 9.530911952804756 5.228714187182611 2.716592465012471 0 0 0
129 1 8.245597534475333 6.116169104028246 0.3445866946370281 0 0 0
72 2 10.767675970605035 4.3711695736122 0.3831892789799958 0 0 0
127 2 12.109644863532983 6.142026586213082 2.646983929232346 0 0 0
135 1 16.067403522762053 6.098235877922717 0.347116493258518 0 0 0
71 1 14.762819555652023 4.333598467383241 2.685084754613592 0 0 0
131 1 14.664879194479171 7.019005073749178 2.624830947808771 0 0 0
133 3 19.916592063870905 6.1135883989767725 2.54229348477819 0 0 0
76 2 17.351166122170604 5.278209383303954 2.6381050714661867 0 0 0
124 2 1.726589556131538 7.946483811844079 2.515529903462895 0 0 0
16873 2 19.851172757918093 14.574814677870934 29.5208620970602 0 0 0
125 1 6.862587827276264 7.124199953391727 2.674419903405492 0 0 0
181 3 4.194340028711307 8.974133284094092 2.62828206096418 0 0 0
185 1 6.899611659101207 9.860658532057593 2.6524450704468703 0 0 0
130 2 9.522681676743806 7.976678727148499 2.6294712267118947 0 0 0
132 3 10.859062257401046 7.059132434771589 0.42951402192730403 0 0 0
187 2 12.132987333489398 8.94749892140201 2.6432596183840014 0 0 0
192 1 10.839844647421423 9.793559835387516 0.3539304961476187 0 0 0
128 2 13.439246205841268 7.924170500902306 0.3614794462967251 0 0 0
191 2 14.79790421055633 9.819256011754211 2.623475055014655 0 0 0
195 1 16.0684548038485 9.026205539902348 0.4167509903759449 0 0 0
136 3 17.392771226001265 8.004127811215707 2.604078217207597 0 0 0
138 3 18.672234329995636 7.038745455211314 0.3982817577080526 0 0 0
184 2 1.7740480561050886 10.77159671521409 2.5004186559353374 0 0 0
246 1 3.060647217386983 12.60431685179619 0.37699180976644997 0 0 0
182 1 5.546629637110302 10.728557872592027 0.36431416687869694 0 0 0
241 3 4.338643388462447 11.684489931813975 2.6934273490701703 0 0 0
245 1 6.899217721203927 12.679816146489507 2.6131757177453525 0 0 0
190 2 9.473484991021987 10.793582307163302 2.613803310748137 0 0 0
249 3 8.16610462522301 11.742382117146674 0.3510408117147275 0 0 0
247 1 12.055350219180857 11.706824164795442 2.705357940284393 0 0 0
252 1 10.760119779600947 12.800393529173736 0.38351041287971865 0 0 0
16876 3 17.378390206924784 16.323723589272152 29.59521353762965 0 0 0
251 1 14.777579772054438 12.548454961920637 2.4958861342772307 0 0 0
196 2 17.4541195974843 10.82141269096351 2.5938247985135425 0 0 0
258 2 18.71114898206867 12.68064691634188 0.3880055650551148 0 0 0
244 1 1.735053538222021 13.501029532256583 2.6141432443623893 0 0 0
304 2 1.7470815614257122 16.309439798638675 2.6768011649174213 0 0 0
306 2 3.0643632281992925 15.328297579031137 0.4251052155347341 0 0 0
242 2 5.609735938026474 13.532206520217157 0.3943832586080154 0 0 0
301 3 4.343571207442433 14.455752465425736 2.669205184964694 0 0 0
305 2 6.924824595107487 15.377864054553976 2.664031873596033 0 0 0
250 2 9.46793860561611 13.595103844082502 2.6828801928543977 0 0 0
310 3 9.62341054549156 16.2927339118055 2.622133180358175 0 0 0
307 2 12.093988132711441 14.50754585643198 2.633059298425165 0 0 0
311 1 14.736264895605856 15.383417307429362 2.566520117234264 0 0 0
256 3 17.429822732765818 13.589342277890413 2.579018566298365 0 0 0
316 2 17.352813474283685 16.277927663655 2.5965674212574537 0 0 0
318 3 18.748648920821008 15.409272597256594 0.40735986623167186 0 0 0
2766 3 2.936354408213533 1.569745946015948 4.826666959311192 0 0 0
2823 3 0.42233895861143605 3.3907803379348445 4.808425550844669 0 0 0
2762 2 5.556017121251452 2.4911275957587704 4.894521490535783 0 0 0
2829 2 8.17331395011249 3.3979756698590537 4.931000729212443 0 0 0
2772 3 10.775755062000465 1.5514512969803118 4.96982534565871 0 0 0
2768 3 13.371475903593272 2.497348121155773 4.9507690562093 0 0 0
2835 2 16.039086137382842 3.345210398868011 4.885980083413378 0 0 0
2778 2 18.569352746834905 1.5473010662951667 4.880971806011874 0 0 0
2826 3 3.0371947076770676 4.2136241500089575 4.835664928217525 0 0 0
2886 2 2.995069981133973 7.0018637528628185 4.847133594714892 0 0 0
2822 3 5.565365719659888 5.161721692214486 4.891344080912759 0 0 0
2889 1 8.174615130586984 6.2072008315407485 4.917322427939145 0 0 0
2832 2 10.84995223254878 4.297934156475346 4.919663030770887 0 0 0
2828 2 13.475613611538002 5.262533937442485 4.919361694854329 0 0 0
2895 3 16.06116548412289 6.109707812691434 4.962168743573439 0 0 0
2838 1 18.608316800296354 4.341940144596818 4.862172739034916 0 0 0
2946 2 3.108094123506597 9.91617959252591 4.82677956476104 0 0 0
2943 2 0.4319148816389185 8.927002064410875 4.806786168997087 0 0 0
2882 2 5.552940673640534 8.043663161628608 4.864122361184531 0 0 0
2949 2 8.165433858321148 9.022661002175786 4.846179003154546 0 0 0
2892 3 10.9353882023496 7.129400222795985 4.88481573299835 0 0 0
2952 2 10.809699592958454 9.89646286602375 4.886671609713308 0 0 0
2888 3 13.39341501179781 8.025297268257697 4.879797747236516 0 0 0
2955 1 16.06920054269372 8.943905111789098 4.915400931102337 0 0 0
2898 2 18.602527728644333 7.064818974515671 4.826233846799048 0 0 0
2958 3 18.685712114810393 9.870471489821062 4.7897967918425755 0 0 0
3003 2 0.47664348239117654 11.724138958798688 4.781631418065779 0 0 0
3006 3 3.0912581413342815 12.615507019776018 4.830469577336407 0 0 0
2942 3 5.573830773351556 10.85197203978511 4.8791669908062145 0 0 0
3009 3 8.18504395723559 11.774918277672457 4.841309109926019 0 0 0
3012 3 10.767264608063384 12.687298443631578 4.893908020651536 0 0 0
2948 2 13.427104210299172 10.813208021923787 4.884816547759378 0 0 0
3015 1 16.094411384694943 11.691029906283305 4.826476905234538 0 0 0
3018 1 18.685056152460202 12.670990134480233 4.796230898600931 0 0 0
3063 2 0.4582494965925946 14.557012545280855 4.773130454877785 0 0 0
3066 3 3.008336011553468 15.339518237449793 4.852285484505405 0 0 0
3002 3 5.585357875582626 13.559701521018331 4.880986513258885 0 0 0
3062 1 5.623949308470912 16.30199065482863 4.884054971694998 0 0 0
3069 1 8.223279678300702 14.552026310570232 4.873335869197401 0 0 0
3072 3 10.816739476866593 15.40354986260818 4.856668311941003 0 0 0
3008 1 13.371600671462465 13.603974740426674 4.880499533623377 0 0 0
3068 3 13.392851350681147 16.297609459815305 4.790764214740997 0 0 0
3075 3 16.113923233256138 14.558067453699595 4.767974845808593 0 0 0
3078 3 18.680093828200338 15.40529846235714 4.7501349241820146 0 0 0
2764 2 1.6797551555893624 2.458632956257431 7.014565226901894 0 0 0
5526 2 3.0262022494646947 1.5265738816877568 9.438675278581835 0 0 0
2761 2 4.300600483923285 0.7039230292536122 7.074077537761193 0 0 0
2821 3 4.3301425257908885 3.3531313287725144 7.091594845837472 0 0 0
5522 3 5.597009723246527 2.4889831497830093 9.282404367464357 0 0 0
2765 2 6.960712181602013 1.55961761817518 7.110268532920603 0 0 0
2770 2 9.608830766606614 2.4910448753779306 7.1968009981326375 0 0 0
5589 3 8.132739170389966 3.398075999809138 9.333012705895737 0 0 0
2827 3 12.166558739815253 3.4106483235713494 7.078521148546996 0 0 0
5532 3 10.860234910399695 1.5226631194222442 9.363525760897335 0 0 0
2771 1 14.716927769862448 1.5800351684367582 7.0923628145740185 0 0 0
5528 3 13.42648256174245 2.469980377310617 9.279057142333562 0 0 0
5535 3 16.004587612149557 0.7316727915103549 9.250406849789538 0 0 0
5595 3 15.998689162752722 3.414403530657798 9.343327735084765 0 0 0
2833 1 19.896535005688683 3.450350895146906 7.116741502089531 0 0 0
2776 3 17.24993202154921 2.5223320518144186 7.14166453709378 0 0 0
5538 1 18.56743035916817 1.6021804930202383 9.352173208963727 0 0 0
2824 1 1.6860718411540747 5.208919619057221 7.023252680349183 0 0 0
5586 2 3.046558174985451 4.261500884031266 9.267052182822011 0 0 0
5643 1 0.4468255002213267 6.111834769495543 9.335056365253324 0 0 0
2825 3 6.844053165191703 4.225485774268717 7.096758603559297 0 0 0
2881 1 4.292023896444956 6.1429759875624885 7.115867870507176 0 0 0
5582 2 5.6800046626594565 5.2029637165590135 9.324061881115982 0 0 0
2830 1 9.558915840602593 5.191896136091376 7.1062966222189 0 0 0
5649 3 8.238634962607577 6.100246076105091 9.411089209393133 0 0 0
2887 3 12.159962743777788 6.124673325079887 7.032382073661052 0 0 0
5592 1 10.814469500212844 4.264120301250101 9.291818848899842 0 0 0
5652 2 10.851518899165026 6.989640334259939 9.353735066597732 0 0 0
2831 2 14.765878308155541 4.260200485335055 7.162467923833121 0 0 0
5588 2 13.43881344419937 5.200945268253096 9.375421728976535 0 0 0
5655 3 15.993445611284521 6.1017646583811445 9.326594407746828 0 0 0
2893 3 19.888798195224346 6.102270472914508 7.067112340731065 0 0 0
2836 3 17.27861068877235 5.240892537520328 7.125939331746985 0 0 0
5598 3 18.551727443995002 4.405098336786219 9.348714349766363 0 0 0
2884 2 1.6983415558526114 8.0067632834366 7.099525627174027 0 0 0
5646 2 3.076526632759037 7.0527867640743365 9.3915572372678 0 0 0
5706 1 3.0332099287574894 9.816170694928955 9.268073836817097 0 0 0
2885 1 6.871488600755724 7.055225069021489 7.111399738974462 0 0 0
2941 3 4.28809080269137 8.982390502670304 7.0210217748160515 0 0 0
5642 1 5.653312007673841 7.961033336083245 9.393743320176343 0 0 0
2945 1 6.913126934858197 9.915776291230612 7.022928246517114 0 0 0
2890 2 9.530995430852741 7.9854834590995445 7.089992780206699 0 0 0
5709 1 8.29159805786934 8.863524315119038 9.349135409492314 0 0 0
2947 2 12.19343016014553 8.876613012434715 7.090890121586013 0 0 0
5712 1 10.826436572172513 9.776057519923912 9.286449522077321 0 0 0
2891 2 14.730641312194034 7.037964971931308 7.102274498621689 0 0 0
2951 2 14.789787726738624 9.855773065462792 7.157052349031876 0 0 0
5648 1 13.477360190398928 7.911067225670314 9.297222129984032 0 0 0
5715 3 16.083287454245983 8.910614920948992 9.40537667483637 0 0 0
2896 1 17.316938845418203 8.023628735083507 7.080298712143503 0 0 0
5658 1 18.62108796194837 7.053375716702331 9.371914394928611 0 0 0
5718 1 18.629612484051826 9.867483201961425 9.38598456613733 0 0 0
2944 1 1.7235908153218915 10.815873729169784 6.964530907795352 0 0 0
5766 1 3.120464719736311 12.711612994695173 9.253010772026798 0 0 0
3001 3 4.3708801972688995 11.735988901262512 7.01334906207968 0 0 0
5702 1 5.707734914411759 10.850270489926679 9.260812463854464 0 0 0
3005 3 6.961549940556512 12.713393824939486 7.047840308150886 0 0 0
2950 1 9.492579304906146 10.775961944936796 6.985483498558584 0 0 0
5769 2 8.281742089175353 11.69829021825205 9.230491908615925 0 0 0
3007 3 12.088416991348744 11.705552231546086 6.998850577599169 0 0 0
5772 1 10.779816991374178 12.774590958643614 9.2152728916045 0 0 0
3011 1 14.68762237848155 12.666973053894248 7.087516586074848 0 0 0
5708 1 13.452406235177637 10.756391557224541 9.33073801904538 0 0 0
5775 1 16.04418096521095 11.722547954512512 9.377435561525337 0 0 0
2956 2 17.40508208181555 10.85360951130181 7.104358243193004 0 0 0
5778 3 18.646646361789173 12.66600665035569 9.372582384364504 0 0 0
3004 2 1.802322270609694 13.600985216250972 7.045984102938529 0 0 0
3064 3 1.7406203708903305 16.39215629763601 7.003561324852624 0 0 0
5823 1 0.44354783689619026 14.503239645667257 9.260756103800139 0 0 0
5826 1 3.115735424776245 15.393093154046419 9.290080192229802 0 0 0
3061 1 4.369399252545043 14.518434343722378 7.0246788488087155 0 0 0
5762 3 5.759358206662362 13.623188572688553 9.260397184233375 0 0 0
5822 1 5.699419568391712 16.377577055960984 9.304247542064905 0 0 0
3065 3 7.038212643788619 15.415148604488524 7.111143572116288 0 0 0
3010 3 9.50730940094442 13.620862141892967 7.045221934402805 0 0 0
3070 3 9.542763735873013 16.332618547789764 7.101299810170469 0 0 0
5829 2 8.305310755050693 14.489428407573289 9.23300796952308 0 0 0
3067 2 12.04844409712769 14.481633611313027 7.065788974286438 0 0 0
5832 3 10.744782351638236 15.498319249326345 9.246598579785159 0 0 0
5768 3 13.374037379213629 13.615702898346322 9.396934131673254 0 0 0
5828 1 13.401348334408205 16.374178053931043 9.276918684114666 0 0 0
3071 1 14.682153302072441 15.44259715626503 7.095763565786131 0 0 0
5835 2 16.01127373410628 14.531761619668968 9.302936881547263 0 0 0
3016 1 17.394662720295628 13.66084114915829 7.073233483558906 0 0 0
3076 2 17.307904115687986 16.3246870974927 7.047697191839799 0 0 0
5838 2 18.66421053143571 15.413349977767382 9.373912231765742 0 0 0
5524 3 1.7336040568461526 2.4455054292803977 11.654308485054461 0 0 0
5525 2 6.915180362812614 1.520897779469598 11.592619263017427 0 0 0
5581 2 4.328571349966207 3.2946394119887583 11.563238193622261 0 0 0
5530 3 9.552750949171136 2.433699965901842 11.590448332861914 0 0 0
5587 2 12.12882781763667 3.371329904409831 11.495357597954959 0 0 0
5531 1 14.679905015052332 1.5608314629292959 11.506793546162848 0 0 0
5536 3 17.346682099845175 2.477514803174441 11.572929657607448 0 0 0
5584 2 1.7188967580632502 5.154235210330005 11.586858615864692 0 0 0
5641 3 4.379367440241186 6.074109522351431 11.621105960977921 0 0 0
5585 1 6.939318915693423 4.2158142657406685 11.5217971431337 0 0 0
5590 2 9.52232291144192 5.180722348810625 11.541452888369935 0 0 0
5645 3 6.993287342793663 7.012172614952775 11.6008677441868 0 0 0
5647 1 12.150549237605976 6.069825510001125 11.609226361652041 0 0 0
5591 3 14.799955401301535 4.3093104276284295 11.512536702748077 0 0 0
5651 3 14.828528502323639 7.020323954007086 11.57228397909607 0 0 0
5596 1 17.35437894354941 5.225758334088822 11.550029303104905 0 0 0
5644 1 1.723031174211945 7.924499906451466 11.619953896506354 0 0 0
5701 1 4.384431833375638 8.912624109516685 11.594980935987936 0 0 0
5705 1 6.979318398471361 9.960143250104478 11.617342722517524 0 0 0
5650 3 9.528386272629561 7.950096620049962 11.617963375923612 0 0 0
5707 1 12.193071871277237 8.910767085196523 11.612929741087136 0 0 0
5711 1 14.794952436715548 9.842120227851888 11.633721276102726 0 0 0
5656 3 17.277238308912107 7.985391408008917 11.591447862374348 0 0 0
5713 1 19.91056562115931 8.981608123022069 11.63864231878228 0 0 0
5704 1 1.722259649556359 10.772814066150062 11.555292411840734 0 0 0
5761 3 4.326728211297566 11.747133366334381 11.485609635854923 0 0 0
5765 2 6.973614816275548 12.687115202088602 11.48943804558499 0 0 0
5710 1 9.493720566098503 10.887994155019596 11.598146539474774 0 0 0
5767 1 12.132280766083706 11.800851808273473 11.623894415418391 0 0 0
5771 1 14.807632313414823 12.6703207915205 11.63241469106585 0 0 0
5716 3 17.304645873148797 10.793637408370657 11.714750350396699 0 0 0
5764 3 1.7170282769843062 13.574441493217229 11.513654208764624 0 0 0
5824 1 1.7705146089468808 16.319272308694384 11.507574481671941 0 0 0
5821 2 4.376135134577023 14.484570025326759 11.536938669452962 0 0 0
5825 2 7.012681656759909 15.483112974533077 11.519006406065078 0 0 0
5770 3 9.530752827516821 13.61712198888237 11.586983737145273 0 0 0
5830 2 9.667882831174031 16.321467989517345 11.57248896630598 0 0 0
5827 1 12.090201535514243 14.574430262377154 11.612981119207381 0 0 0
5831 1 14.79444010949663 15.42733478709343 11.637110335581362 0 0 0
5776 2 17.397835934996856 13.559825676022863 11.552039867491592 0 0 0
5836 2 17.3208608237016 16.412370573271815 11.603432603395152 0 0 0
8286 3 2.9762866150791853 1.5198534320378514 13.864404302327534 0 0 0
8343 3 0.4411884983728044 3.3167933575747663 13.771267827181097 0 0 0
8284 3 1.7113233455915557 2.4094508145878817 16.02380792991918 0 0 0
8282 1 5.570443260872999 2.4068601754881507 13.819007587155598 0 0 0
8289 3 8.176802563679642 0.7037615344917701 13.889298342485382 0 0 0
8349 2 8.187275343231265 3.3213707618531947 13.82070378151544 0 0 0
8292 3 10.701223330634924 1.5533897141852802 13.825805827542569 0 0 0
8288 1 13.39474722755477 2.4614862450000503 13.761669967901856 0 0 0
8355 1 16.042663260879344 3.364394525025941 13.800455622263678 0 0 0
8298 3 18.600050161030612 1.5849863087775846 13.84859718889633 0 0 0
8296 3 17.29285191685075 2.3978779678598006 16.0304312768323 0 0 0
8353 2 19.861260692971005 3.3725659452323713 16.100476530464096 0 0 0
8346 2 3.0074905551965 4.178047935553652 13.905615558664676 0 0 0
8406 1 3.0246120352335315 6.9806659309531005 13.869533057581007 0 0 0
8342 1 5.611943450856298 5.062795221021956 13.863015139519016 0 0 0
8409 1 8.300366945796645 6.056819848868625 13.848894131807818 0 0 0
8352 2 10.852920953494928 4.261690716384354 13.858388329627338 0 0 0
8348 1 13.518055324168776 5.269255346718069 13.879244424684504 0 0 0
8415 2 16.063309782940614 6.189820788865377 13.806049974982209 0 0 0
8351 2 14.736460726336407 4.287794265518835 16.090898588911315 0 0 0
8358 2 18.56568950784101 4.28607324493615 13.821000464339107 0 0 0
8466 2 3.032462630371661 9.808183487390997 13.796667212329755 0 0 0
8402 1 5.6343566344750435 8.020688152251092 13.91265347474609 0 0 0
8469 1 8.254351177142903 9.051723281245904 13.95821939429576 0 0 0
8412 1 10.796419010416793 7.0398204222184315 13.960190188431994 0 0 0
8472 1 10.871566402132903 9.973201915409758 13.976293838825072 0 0 0
8408 1 13.578880877233104 8.072511445569914 13.918264210232273 0 0 0
8475 3 16.107664638859763 8.984014168937412 13.822256034873261 0 0 0
8471 2 14.859244968586701 9.94099085096643 16.081224117638683 0 0 0
8418 1 18.624124086563302 7.129146926360218 13.89370637886871 0 0 0
8478 1 18.639206102724813 9.943345049117813 13.916225378004267 0 0 0
8526 1 3.155545749854247 12.589489090180937 13.798862338449062 0 0 0
8464 1 1.7760499618288939 10.701566222488854 16.101267715081985 0 0 0
8462 2 5.644335071318865 10.759748686330358 13.824373391987484 0 0 0
8529 2 8.258918838038277 11.80107861472771 13.866718494352614 0 0 0
8525 3 6.97528669407584 12.560807749974206 16.097390297275904 0 0 0
8532 2 10.897452927190338 12.74464103666764 13.885378189949426 0 0 0
8527 3 12.263942735319286 11.710935766805013 16.082295488387423 0 0 0
8468 2 13.499811111495267 10.846888402724982 13.837242816044864 0 0 0
8535 3 16.06855908927527 11.71791804449581 13.94227637118554 0 0 0
8531 3 14.795118665781072 12.566661015984666 16.03959674043521 0 0 0
8538 2 18.644788390230293 12.650673671809859 13.858339712875148 0 0 0
8586 1 3.0285502230428776 15.337747452144667 13.793468375582172 0 0 0
8524 2 1.7913980129529974 13.428733148851814 16.075373212618306 0 0 0
8584 2 1.7377150044044325 16.245076260479735 16.069031262824296 0 0 0
8583 2 0.41964501489493783 14.415021708144328 13.79273405693552 0 0 0
8522 1 5.773784441556698 13.4460185202784 13.729592704613122 0 0 0
8582 1 5.747354169463224 16.290354891502798 13.734836282070482 0 0 0
8581 2 4.42112721845053 14.381192056354587 16.02166559594067 0 0 0
8589 3 8.378607932179927 14.450527104055551 13.771519370630465 0 0 0
8585 1 6.994709817414406 15.359330519966012 16.068648853506094 0 0 0
8530 3 9.510099704146361 13.560039692642171 15.988459875351266 0 0 0
8590 3 9.548999018281318 16.34764207038295 16.027733792761293 0 0 0
8592 3 10.855343426082687 15.433508136789468 13.839330034047743 0 0 0
8588 2 13.412028635964829 16.38773058648262 13.820473277301225 0 0 0
8587 1 12.13361960190778 14.499581102561935 15.97430316689462 0 0 0
8528 3 13.47180230219205 13.553517570595899 13.849824377587101 0 0 0
8595 2 16.0305097242538 14.476057971249254 13.862853383660527 0 0 0
8591 1 14.701472882868483 15.419643082728863 15.992326600491113 0 0 0
8598 1 18.558849114463705 15.35787916457433 13.807618263091165 0 0 0
8596 3 17.32641720715019 16.32840305293784 16.06978169772862 0 0 0
11103 3 0.43545435004166005 3.366104862109583 18.364585193703203 0 0 0
11046 1 3.0691235291881003 1.4975600368203168 18.289806532818858 0 0 0
8341 3 4.296551592570396 3.3309034104604436 16.10946054405115 0 0 0
11042 2 5.694460884820126 2.4873265323750484 18.336543872044235 0 0 0
8285 3 6.982260663177076 1.4878521145315613 16.159416658729572 0 0 0
8290 2 9.476967262607088 2.4328981359337467 16.1936312630686 0 0 0
11109 3 8.25917099029502 3.4091523820483918 18.394902313159736 0 0 0
8347 1 12.04877105020717 3.340072671014132 16.186205487172046 0 0 0
11052 3 10.79107002288126 1.470909224018655 18.396537699523602 0 0 0
8291 2 14.702123249699648 1.4917813298293265 16.118184333995842 0 0 0
11048 1 13.513242351915107 2.4650507905418024 18.363008593373742 0 0 0
11115 2 16.043516077161666 3.2955628384558 18.347405556905283 0 0 0
11058 1 18.53311396687692 1.6378551365115759 18.307261943928143 0 0 0
8344 1 1.7585669250847218 5.126297432116481 16.166126949117395 0 0 0
11106 1 3.0466577874537624 4.257887993592804 18.326896846205333 0 0 0
11163 3 0.4835654469234849 6.063618712756838 18.442259248982445 0 0 0
11166 3 3.1147307466823864 7.013371101555406 18.372966088541062 0 0 0
8401 3 4.345825275022744 6.067172819329785 16.140918899973943 0 0 0
11102 3 5.6680900947771775 5.24519384441906 18.386926744802867 0 0 0
8345 1 6.970056842069162 4.17380504705289 16.23372348016094 0 0 0
8350 2 9.487806402250733 5.228455026199105 16.164156848465087 0 0 0
11169 3 8.311160689979403 6.125330646798409 18.397860405393136 0 0 0
8407 1 12.09398962604751 6.218522205743267 16.24171663007792 0 0 0
11112 2 10.85924266812803 4.2986505470315475 18.38524114546852 0 0 0
11108 3 13.526405838012073 5.275149925772419 18.336774010018306 0 0 0
11175 3 16.042618179855292 6.076613745128871 18.40083592851367 0 0 0
8356 1 17.317649036884518 5.2390336732748155 16.15228419478173 0 0 0
11118 2 18.592838958814212 4.392821645776507 18.382825752018764 0 0 0
8413 2 19.89444096258578 6.223975052326673 16.188412056438683 0 0 0
8404 1 1.7624551064700238 7.937123612663362 16.106146013081773 0 0 0
11226 1 3.0593639379566864 9.81531825589103 18.3672253538894 0 0 0
8461 2 4.352548164053587 8.888790129545699 16.11300026852949 0 0 0
11162 1 5.677847128242196 7.943202153683033 18.30122306439987 0 0 0
8405 1 6.962993152750451 7.063235467848446 16.203904504987367 0 0 0
8465 2 6.99200902126955 9.880576577508764 16.194157460954962 0 0 0
8410 2 9.538153796222588 8.044938229114315 16.2274066971185 0 0 0
11229 3 8.312296015035693 8.946585499456978 18.36433610803876 0 0 0
8467 2 12.192040570885672 8.992318736979003 16.202582949889365 0 0 0
11172 3 10.782100662211558 7.090250700476806 18.359502957727422 0 0 0
11232 3 10.774061756073177 9.812931840536883 18.337162508641494 0 0 0
8411 2 14.74626685490114 7.110654444695733 16.199855569183843 0 0 0
11168 3 13.446487432403295 8.028036724567567 18.358566477922643 0 0 0
11235 1 16.024581086987617 8.968429375218221 18.2819390259846 0 0 0
8416 1 17.289082931146034 8.074509257957974 16.172967185086726 0 0 0
11178 3 18.614870106375722 7.126956297074678 18.407752611776136 0 0 0
11238 3 18.67508032179197 9.883647441715125 18.33541508406287 0 0 0
8473 3 19.905836872522023 8.979417895222051 16.180527411394877 0 0 0
11286 1 3.1384583334278973 12.758470021721363 18.423735438557078 0 0 0
8521 3 4.465757383434638 11.687110842454414 16.110288284560472 0 0 0
11222 3 5.631725981577925 10.717689308693267 18.2794682315919 0 0 0
8470 2 9.64398642905851 10.877352610827698 16.16619802776233 0 0 0
11289 2 8.183495039642347 11.695483768445973 18.393493901259827 0 0 0
11292 1 10.756978383106578 12.570392881918126 18.287149803177655 0 0 0
11228 2 13.380508198286984 10.783190406969323 18.313229106901723 0 0 0
11295 3 16.07146328458993 11.648925280009761 18.25552070888443 0 0 0
8476 3 17.35937841985258 10.892752227047906 16.160897494375714 0 0 0
11298 3 18.62073850801371 12.543749271331103 18.37651483513139 0 0 0
8533 2 19.909737499928216 11.71451800075367 16.166305678782766 0 0 0
11346 2 3.0595449472533316 15.416647794480799 18.357673237490413 0 0 0
11282 2 5.7322218368743 13.509903041506693 18.344363879902986 0 0 0
11342 1 5.587844791916346 16.273868976001626 18.41032199140814 0 0 0
11349 1 8.246592318883048 14.472276597187903 18.280225885013746 0 0 0
11352 1 10.778581464114968 15.427921014535775 18.258925651147038 0 0 0
11348 1 13.377188208074767 16.415785290602287 18.302873030238406 0 0 0
11288 1 13.44854986199057 13.51707775739344 18.28578185571705 0 0 0
11355 1 16.038212160599816 14.413012028393306 18.29710650465751 0 0 0
8536 2 17.384130744789992 13.54721132564139 16.159026694908874 0 0 0
11358 1 18.678054860570644 15.317082145880216 18.344757464594917 0 0 0
11044 1 1.7480850599386628 2.4856887597160515 20.582177650858064 0 0 0
11101 1 4.406354059045888 3.3775570383465188 20.53777024569033 0 0 0
11045 3 6.954415522169313 1.5208293268541622 20.562405707435424 0 0 0
11050 1 9.603105378011179 2.5399985416780493 20.611438931962194 0 0 0
11107 1 12.174379838481235 3.411987170786728 20.576427024483323 0 0 0
11051 3 14.71033627381959 1.5235779906223026 20.618275446149468 0 0 0
11113 2 19.878659600582637 3.422898266517511 20.68903048550902 0 0 0
11056 3 17.20466307285751 2.4704385276925773 20.627663189935877 0 0 0
11104 3 1.701818652969767 5.23537180060439 20.628441802337807 0 0 0
11161 3 4.309901882697384 6.132807845481131 20.589741809881968 0 0 0
11105 2 6.932978732970968 4.287722926233894 20.54329262085819 0 0 0
11110 2 9.590103326961094 5.258756146308265 20.62251410746888 0 0 0
11167 1 12.156672815042764 6.083498728635805 20.60361036982781 0 0 0
11111 2 14.710988458052338 4.27870308594207 20.62039357959637 0 0 0
11173 3 19.8350674487328 6.210680438773182 20.630144779392218 0 0 0
11116 1 17.291725430100087 5.210260147973701 20.586351317939332 0 0 0
11164 1 1.7262066293706115 7.882376782943517 20.67561548092031 0 0 0
11221 1 4.375314976753117 8.97260960154685 20.660515013778433 0 0 0
11165 1 7.005196100371105 7.0526569261839205 20.613959969096758 0 0 0
11225 2 6.961720651847408 9.815885633448335 20.544493829840906 0 0 0
11170 1 9.525212843999228 8.016862022776195 20.69006276683467 0 0 0
11227 1 12.158833779252234 8.98776092938963 20.59832248745819 0 0 0
11171 1 14.754889359526802 7.085233746553985 20.62948293093134 0 0 0
11231 2 14.751160293294294 9.871800646321102 20.592187977221332 0 0 0
11233 2 19.890437178947916 8.960581606103151 20.635755095758096 0 0 0
11176 3 17.313599680815145 8.094515120231119 20.47632711400808 0 0 0
11224 2 1.625344551314653 10.670824599150219 20.55561496056606 0 0 0
11281 2 4.277636761818924 11.674776868922775 20.59818561892443 0 0 0
11285 1 6.8107975455333145 12.546429253310952 20.650795419100753 0 0 0
11230 3 9.453637913786872 10.773930902253019 20.624209477529774 0 0 0
11287 1 12.104307210747653 11.673206677930558 20.584259556242184 0 0 0
11291 1 14.701993173511674 12.571582120682459 20.573101185102992 0 0 0
11236 1 17.36228090544054 10.730823899725939 20.605011007284666 0 0 0
11284 2 1.6679576545172083 13.471151135846423 20.676844098047283 0 0 0
11344 1 1.644956378935954 16.195198976458443 20.615334832381315 0 0 0
11341 2 4.401755361506272 14.479305551810945 20.688626963107332 0 0 0
11345 3 6.879445875527579 15.399832069156297 20.718332185243476 0 0 0
11290 2 9.436667544139294 13.547574119867633 20.599195177868005 0 0 0
11350 1 9.37408398864796 16.328826663973977 20.637168217206067 0 0 0
11347 1 12.033203325998866 14.478689179260975 20.644577631893462 0 0 0
11351 1 14.687775235282757 15.477516036623266 20.6953821454602 0 0 0
11353 2 19.866791807664395 14.370895184256355 20.612831564135895 0 0 0
11296 1 17.300333712332378 13.466613649410139 20.624144757255724 0 0 0
11356 2 17.260242858973097 16.273260265420884 20.58347351887937 0 0 0
13804 2 1.6750473506844088 2.443314519088188 25.140232301068345 0 0 0
13806 1 3.124601283997085 1.554241601184613 23.004942651707797 0 0 0
13802 2 5.691885616619657 2.4124306909997064 22.79607725258268 0 0 0
13805 1 6.78262707332522 1.6181985366746934 25.08053797422101 0 0 0
13861 2 4.322535368636351 3.37775162678358 25.13304165631898 0 0 0
13810 1 9.532442605545851 2.512136200515537 25.108616348980384 0 0 0
13869 1 8.292607784225995 3.42476164732517 22.800794824863594 0 0 0
16816 2 17.30222896690257 13.537501861169165 29.58892595458782 0 0 0
13812 3 10.895393466698783 1.5939049697923102 22.831797572695365 0 0 0
13867 2 12.125743236076113 3.351934050860722 25.188391408938436 0 0 0
13808 2 13.406253264681505 2.477195090313543 22.836657808274314 0 0 0
13811 1 14.658846580197865 1.697191878869424 25.080315816135993 0 0 0
13875 2 16.022860091959647 3.3955101226245294 22.922308675813674 0 0 0
13873 2 19.873447610146712 3.4445834718347093 25.100533936139218 0 0 0
13816 3 17.303742905925603 2.497484567438733 25.069131785466876 0 0 0
13818 2 18.584081191302374 1.5866878585752549 22.87929292817256 0 0 0
13864 1 1.6455148438913816 5.13451413791967 25.066341327209198 0 0 0
13866 3 2.9589430777852037 4.298615218720204 22.775816695486608 0 0 0
13926 2 2.9484076203025253 6.985634204060345 22.84226208271388 0 0 0
13862 1 5.548524661904153 5.143696226730776 22.87664993525597 0 0 0
13921 1 4.226637182284793 6.1669671082361734 25.100586020432903 0 0 0
13865 2 6.973202297745494 4.324519315797548 25.151409868527484 0 0 0
13870 2 9.621849112557063 5.2236448331247605 25.148558582967723 0 0 0
13929 2 8.19508374802012 6.15122790858658 22.872733467385473 0 0 0