LAMMPS data file via write_data, version 2 Aug 2023, timestep = 5023475, units = metal

38640 atoms
3 atom types

0.41294933193470484 78.46062038806713 xlo xhi
0.6785255077012823 127.59715730234609 ylo yhi
0.35196975799668023 63.400777632004136 zlo zhi

Masses

1 92.90600000000001
2 47.88
3 50.942

Atoms # atomic

8003 3 3.777311562437017 3.280781006228869 1.0950267659177688 0 1 0
8007 3 1.1710830213720953 2.3948479913872163 1.1363193631160315 0 1 0
8017 1 2.4544685851728993 4.200294052222295 3.358542738014531 0 1 0
8002 1 2.487830889436353 1.4565879556994372 3.389107689935052 0 1 0
8006 1 5.0884895970803505 2.3542964314066652 3.3446485996961903 0 1 0
8021 1 5.110472711123348 5.109738469294186 3.334951643801598 0 1 0
8023 1 6.482876151595342 4.16810075733098 1.0909875442662746 0 1 0
8025 3 9.109346073273528 5.139310115236085 1.0487534427691616 0 1 0
8010 3 9.094312497609344 2.3677826648865437 1.0874681311700698 0 1 0
8009 3 7.703252739238265 3.218399598447818 3.3540200681272 0 1 0
8008 1 6.417411118929613 1.4374957824984538 1.1342410042876254 0 1 0
17657 1 11.729969550408098 3.316128424960617 1.0820820644155602 0 1 0
17676 2 14.313566029862583 4.194197522091659 1.0739915175658619 0 1 0
17658 3 13.052387332505672 2.3735094363254245 3.322792506808063 0 1 0
17671 1 10.385975801277699 4.145797412504688 3.324974555627319 0 1 0
17673 3 13.004967760072013 5.078349837511676 3.363170379051319 0 1 0
17661 3 14.308637450948535 1.4167936832554104 1.0485374828309455 0 1 0
17656 1 10.387337718451025 1.4560434776841937 3.3358327621196735 0 1 0
17660 2 19.42203444204261 3.225876747351503 0.9872414878588163 0 1 0
17679 3 16.90384854576102 5.088397393494762 1.0361667166350093 0 1 0
17664 2 16.84316136044971 2.311614492845978 1.0788298265983245 0 1 0
17674 2 18.14827579481777 4.141894556512777 3.269281363967467 0 1 0
17662 2 15.549487981320997 3.2141400420241726 3.355246996517965 0 1 0
17659 3 18.10339484104054 1.3941538778306335 3.280306187946285 0 1 0
8022 2 1.2116737143098115 5.148036333257432 1.1233804661090894 0 1 0
8018 3 3.773238068546453 6.024800166117642 1.000086315329652 0 1 0
8037 2 1.2134640381056943 7.931712373044706 1.088402239862903 0 1 0
8033 3 3.8057828547464267 8.768051840625548 1.0678430503941059 0 1 0
8032 2 2.4899865419144116 6.896012627036323 3.3494800012584327 0 1 0
8036 1 5.124308727523684 7.851716019251009 3.3188531219664563 0 1 0
8047 1 2.399585089378686 9.671533917137895 3.224714803897672 0 1 0
8024 1 7.766325051173539 6.038524876242586 3.3335340725040288 0 1 0
8038 1 6.461007118167379 6.9428446335066925 1.0588948986104252 0 1 0
8040 1 9.121610196131831 7.9081190723260075 1.0349505666706176 0 1 0
8039 3 7.743928876770661 8.863495577304334 3.2340813663240278 0 1 0
17672 1 11.757837519341836 6.035987412570577 1.095027706644435 0 1 0
17691 2 14.307851016008698 6.978910251775941 1.0443782272630813 0 1 0
17687 3 11.74844134294337 8.854534410154828 1.0369715591087365 0 1 0
17686 1 10.407030666733418 6.959607094071906 3.293012760427928 0 1 0
17688 2 13.02577766003895 7.842321768491044 3.3417042111948394 0 1 0
17706 2 14.227520620421256 9.737777435780709 1.0569449749753497 0 1 0
17677 2 15.51368833259107 6.009550032423768 3.367528523604298 0 1 0
17675 2 19.46475608608711 5.980873738231515 0.9860049792573062 0 1 0
17694 3 16.868325130272204 7.797583844907642 0.9967187455663944 0 1 0
17692 3 15.598726436293877 8.749060702236948 3.227083685013183 0 1 0
17689 2 18.130599602597822 6.939271697953691 3.2319948572671273 0 1 0
17690 3 19.413282937924723 8.730880079147653 1.0082750408354788 0 1 0
17704 1 18.117971423617767 9.689140818194875 3.2313970150741254 0 1 0
8052 2 1.2241801480839118 10.669615437548808 1.0530969120476221 0 1 0
8048 1 3.808095673602555 11.583586901339352 0.9878207907301044 0 1 0
8067 3 1.2146661796510974 13.376581136722201 1.0528544977415661 0 1 0
8062 3 2.5836060361334865 12.480025314805252 3.281071141901607 0 1 0
8051 1 5.149624197348567 10.637174847505053 3.262994584009344 0 1 0
8066 1 5.143440560266684 13.476295649529215 3.2393381691769205 0 1 0
8053 1 6.431777419054352 9.713480824511702 0.9780627846138059 0 1 0
8055 1 9.1268874425033 10.70730312122772 1.0468700695253093 0 1 0
8068 3 6.430457689931372 12.483592821726528 1.0018361603407229 0 1 0
8070 2 9.03507425587329 13.446982356076184 1.0951746367289004 0 1 0
8054 1 7.828093486527963 11.618300261917604 3.2568569773046683 0 1 0
17701 1 10.421538018926569 9.76845890464181 3.3183502971517176 0 1 0
17703 2 12.96608872520869 10.681558021051586 3.3075737344195506 0 1 0
17702 3 11.761601347979376 11.617724677120899 1.080573143326611 0 1 0
17721 3 14.243019091271833 12.491234329740445 0.9954048935072694 0 1 0
17718 2 12.95783910931299 13.451057045741548 3.2985298456008545 0 1 0
17716 3 10.488369281234702 12.575989924378282 3.3110362889753167 0 1 0
17709 2 16.844705156461806 10.601136201498457 0.9681688813683615 0 1 0
17705 1 19.3777868554332 11.52472035147438 0.9341696970322865 0 1 0
17724 1 16.839124233908507 13.411758015730646 0.9683222307554153 0 1 0
17707 1 15.48772140356601 11.54085034555962 3.2120743910101783 0 1 0
17719 3 18.094758567496395 12.485518698569845 3.2573921759339237 0 1 0
8063 2 3.8517183698725024 14.32185012869825 1.0219365823720035 0 1 0
8077 1 2.570680384976156 15.240883273339902 3.261815605027807 0 1 0
8082 3 1.3200948828154881 16.11381910929481 1.0154235828677998 0 1 0
8078 3 3.921170061949784 17.067099100332733 1.0306971386922639 0 1 0
8092 1 2.5828271696317096 18.022866977426684 3.248272828046919 0 1 0
8081 3 5.150441850594423 16.213956952249422 3.2884940991571407 0 1 0
8069 1 7.783685581700591 14.365996163933799 3.2936322395724225 0 1 0
8083 2 6.537242202492012 15.2576607869018 1.090323376535864 0 1 0
8085 3 9.131029763729885 16.18362734125104 1.073440598535647 0 1 0
8098 2 6.495323309719 18.047637215443665 1.0306623536414274 0 1 0
8084 2 7.768654678883097 17.079382898112065 3.3027827296522942 0 1 0
17717 2 11.619921553694331 14.323874859679979 1.069607751138973 0 1 0
17731 3 10.411651781614074 15.308253136345336 3.293544806753417 0 1 0
17736 2 14.237857466271501 15.306599943169763 1.060572945210401 0 1 0
17732 2 11.704762727268307 17.06167608535103 1.0794041997773829 0 1 0
17751 3 14.302806561347136 18.02177724981602 1.078171364373903 0 1 0
17733 3 12.88005987365095 16.16720296931921 3.3516021553458684 0 1 0
17746 2 10.37088738738064 18.015700163366606 3.289730037788152 0 1 0
17720 1 19.410061525819863 14.314580176397845 0.9961994038531281 0 1 0
17722 1 15.508965589071797 14.391445368208322 3.280430226610957 0 1 0
17734 1 18.078098449431216 15.329679698421714 3.2687899565155147 0 1 0
17739 3 16.85041742025058 16.19538397395595 0.9789616338728441 0 1 0
17737 2 15.501401979950435 17.082966510978135 3.276990597685441 0 1 0
17749 2 18.131147147775884 18.05007714599086 3.31789043485699 0 1 0
17735 1 19.421506911460845 17.174514165374415 1.0303360039440128 0 1 0
8096 2 5.19773135617372 18.954754409959143 3.3154622483127727 0 1 0
8097 2 1.2405334348628378 18.87312715402506 1.094801368880706 0 1 0
8093 2 3.86126867944146 19.846112650855506 1.0716844022209275 0 1 0
8112 2 1.3557755164241314 21.64769802635004 1.1481277206618634 0 1 0
8108 2 3.9207995824288187 22.634221042292918 1.1520722488821842 0 1 0
8107 3 2.653771389258024 20.77937638250353 3.310922200640445 0 1 0
8111 3 5.219132504133577 21.68680030430516 3.336486527598419 0 1 0
8100 3 9.084161533066844 18.849297605404388 1.092446332684635 0 1 0
8099 2 7.837204041538071 19.87417675858612 3.3112822539318443 0 1 0
8113 3 6.440819089692042 20.78295105214157 1.1416101305939326 0 1 0
8115 2 9.110247525925223 21.5957543156371 1.1806535129613926 0 1 0
8114 2 7.80605004428728 22.64150800744232 3.3958181687375606 0 1 0
17748 2 12.977325582910549 18.896646461265345 3.353024241968773 0 1 0
17747 2 11.590094333295733 19.866497354126185 1.1882104722963092 0 1 0
17762 3 11.676393912664079 22.57441032242758 1.1928823499133998 0 1 0
17766 2 14.252685601308931 20.703559660046267 1.0851744300970985 0 1 0
17763 2 12.988507412057796 21.671966199680515 3.3654853301824263 0 1 0
17761 3 10.409170354952444 20.829849599801715 3.4524402030131376 0 1 0
17754 3 16.803678595136905 18.90664420358956 1.123434103740261 0 1 0
17752 2 15.571367267535846 19.881644861728685 3.424494597298336 0 1 0
17769 2 16.900879775142666 21.668998379734962 1.066594439261825 0 1 0
17767 3 15.563384618389849 22.617483347929205 3.3660859800284557 0 1 0
17764 2 18.167839613577737 20.778084050387605 3.356152089953333 0 1 0
17750 2 19.424986371746254 19.86683418924887 1.0143141082241354 0 1 0
17765 3 19.483309399586386 22.61752325272813 1.119493007072407 0 1 0
8122 3 2.6097911214369414 23.544348052055355 3.318459864511629 0 1 0
8127 2 1.3091505921534743 24.468091030716018 1.1112246204790885 0 1 0
8123 3 3.93096459047223 25.397985634390448 1.1684780051798795 0 1 0
712 3 1.2863532551096144 27.2155950998941 1.163856672292045 0 0 0
707 2 2.6281735976740297 26.32362972920829 3.3704754259662866 0 0 0
8126 2 5.107589624205526 24.428723890256038 3.4013342065361276 0 1 0
711 2 5.276268634540346 27.247297421408383 3.3685265539288163 0 0 0
8128 2 6.502934314317058 23.53057598960656 1.1727092069673428 0 1 0
8130 2 9.137352627635627 24.421793709557495 1.2108985336871783 0 1 0
713 3 6.457717867849459 26.251953825474367 1.1485182794606668 0 0 0
715 2 9.02680319647646 27.235230793706663 1.165908733406515 0 0 0
8129 2 7.743075560359992 25.445339906587932 3.4323942809029493 0 1 0
17776 3 10.386906376266126 23.48016252674579 3.4160096125402393 0 1 0
17781 2 14.285035275250387 23.4846189500927 1.1586651744258294 0 1 0
17778 2 12.926255733202641 24.469571711303097 3.38033162685204 0 1 0
17777 3 11.681212068230623 25.332659657216198 1.1639076019577537 0 1 0
10366 2 14.255513518585987 26.25392351943589 1.138281902185789 0 0 0
10361 2 10.44016308018717 26.23276207470782 3.336993341132199 0 0 0
10363 3 12.926837652991898 27.182659693217055 3.4281236738509357 0 0 0
17779 2 18.145006958598668 23.551204666691827 3.3367078646908808 0 1 0
17784 3 16.85241968184597 24.360590368194334 1.0861513142532637 0 1 0
10369 1 16.821938429994024 27.162331022368598 1.1531022586129767 0 0 0
17782 2 15.593803983809588 25.3136985302779 3.3539679729961756 0 1 0
10364 3 18.190024940680473 26.23688803476067 3.3915896953882205 0 0 0
17780 2 19.441662107235825 25.349030976314445 1.1295296288516008 0 1 0
708 2 3.8062336677394404 28.12330853582674 1.1905868374544337 0 0 0
722 3 2.592291857226153 29.078962741831894 3.4069168441673 0 0 0
727 2 1.258871469411179 29.979383090121157 1.1971510309478282 0 0 0
723 2 3.923747942807323 30.962136705990016 1.192085918807259 0 0 0
737 2 2.514174945935208 31.767197136800814 3.406870358781504 0 0 0
726 3 5.130964623234612 29.98942145563482 3.398913783543931 0 0 0
714 3 7.809287375838997 28.164116790298188 3.4086262065698736 0 0 0
728 2 6.470330899416785 29.00517728399664 1.1872761331346613 0 0 0
730 2 9.077655436885802 30.006974379651407 1.1498338623599742 0 0 0
743 3 6.491818003985242 31.748968394422413 1.1865668964704195 0 0 0
729 2 7.734603959556156 30.9123013035146 3.4097355824470723 0 0 0
10391 3 10.30937723369436 31.757769460573826 3.3692730972495077 0 0 0
10362 3 11.662690271792211 28.09555263776582 1.2258755893414137 0 0 0
10381 1 14.280874441801407 29.011956452131678 1.2123904467615103 0 0 0
10376 2 10.370519156696943 29.03698141871271 3.4145105251302383 0 0 0
10377 3 11.608077368847066 30.858488970565375 1.2176158582012446 0 0 0
10396 1 14.232435111826064 31.809813224138054 1.1828102837408656 0 0 0
10378 1 12.932528413061695 29.968723996379676 3.444612706995713 0 0 0
10365 1 19.489932587076638 28.101973532634958 1.1717509874657874 0 0 0
10367 1 15.578243046435006 28.088140260776463 3.361273459665004 0 0 0
10379 1 18.26571667311024 29.04249064096854 3.385834652872074 0 0 0
10384 3 16.964539648282223 29.990267016933235 1.2155786000301387 0 0 0
10394 1 18.266568086033736 31.8434556926235 3.390736839863368 0 0 0
10382 3 15.600640766600023 30.937947432850393 3.368341463068479 0 0 0
10380 1 19.57975120595234 30.94746345296411 1.1383792449355288 0 0 0
8192 2 1.1680065840056646 5.105915441088125 5.601549968525829 0 1 0
8173 3 3.7942016501080316 3.2661015416572665 5.652559569839751 0 1 0
8177 3 1.1029583250031922 2.379204448541551 5.632929144997459 0 1 0
8187 1 2.3843791816545212 4.15098165694367 7.830493571702362 0 1 0
8172 2 2.462123782599493 1.4567577667636804 7.84234485867474 0 1 0
8191 1 5.0856833844901335 5.127402627244521 7.853078978390212 0 1 0
8176 1 5.055346831522448 2.2972590678509377 7.903854955269078 0 1 0
8180 1 9.109213299862102 2.3265049865683958 5.60307940619779 0 1 0
8193 1 6.418481561423364 4.165902801060764 5.607072899168146 0 1 0
8195 1 9.085309805190892 5.0930674718423266 5.582597738653028 0 1 0
8179 3 7.715270163075231 3.261922208427186 7.8528901918619125 0 1 0
8178 1 6.421109900105654 1.3878651140162483 5.632337027318212 0 1 0
17827 2 11.668411460243698 3.2221634169442126 5.5844334132202125 0 1 0
17846 2 14.270369851178499 4.2385323843978275 5.530172966546425 0 1 0
17828 3 13.002465203337147 2.3045201620949722 7.796910352589348 0 1 0
17843 2 12.941956626802824 5.081184109550993 7.85691140646762 0 1 0
17841 1 10.40991346869539 4.164547419293694 7.849174269066032 0 1 0
17831 2 14.23283938440855 1.3965910451255485 5.538940236312106 0 1 0
17826 2 10.393744794289695 1.4232205931083544 7.8301928027907355 0 1 0
17834 3 16.825986004289707 2.330564836251684 5.536687910787231 0 1 0
17849 3 16.869328446952608 5.014742269039675 5.513311067991124 0 1 0
17844 1 18.14552923948967 4.101997667308884 7.812072846309937 0 1 0
17832 2 15.552179414273567 3.2312102762060233 7.818404339667247 0 1 0
17830 1 19.457286991763986 3.1863085478078443 5.549060731640995 0 1 0
17829 3 18.12786727963012 1.322161987360928 7.810389127726224 0 1 0
8188 1 3.7764051450877414 6.050386516490574 5.59055859595983 0 1 0
8207 1 1.1376303864296298 7.823537787827966 5.5815593220619615 0 1 0
8203 3 3.790578240282396 8.88302902487912 5.466161319240627 0 1 0
8202 3 2.4546939894614432 6.88757782793251 7.848131541017209 0 1 0
8206 1 5.072158451980073 7.896031278421683 7.7861627980598636 0 1 0
8194 1 7.773033851924129 6.039383043137593 7.86492555640796 0 1 0
8208 3 6.434251641109616 6.878696473148466 5.642059311133065 0 1 0
8210 1 9.06394232864689 7.87568515640222 5.553111766770166 0 1 0
8209 1 7.7585280538061445 8.804281171877475 7.818497201229435 0 1 0
8223 1 6.42521745076336 9.73801354158836 5.5055255439505775 0 1 0
17842 3 11.758472526780073 5.991743818778704 5.586744350175658 0 1 0
17861 3 14.194829102175333 6.919693708308125 5.605020832281108 0 1 0
17857 1 11.716258640682696 8.815069041632855 5.523657332460081 0 1 0
17858 1 12.928164461814253 7.846721615249813 7.8579997343742285 0 1 0
17856 3 10.423198823002812 6.969770471982525 7.833434903840667 0 1 0
17876 1 14.184584579194752 9.698217749163305 5.5123653824713825 0 1 0
17847 1 15.486917578461922 5.951142718649828 7.804658434506126 0 1 0
17845 1 19.41680548047546 5.961068656070421 5.517038322652014 0 1 0
17864 1 16.835288728698593 7.786189668982102 5.479476260616922 0 1 0
17859 1 18.13317419308054 6.90247517583593 7.803598384644073 0 1 0
17862 1 15.502074411488088 8.791574831314767 7.832679263958653 0 1 0
17860 3 19.43882315096421 8.750790380641865 5.508193011734404 0 1 0
17874 1 18.106627182685756 9.715103812324498 7.837480616720514 0 1 0
8217 1 2.3971068329650436 9.736156812306236 7.785837610754329 0 1 0
8222 1 1.163446868775952 10.647427960145965 5.575042184706386 0 1 0
8218 1 3.8455989414274616 11.61231523262125 5.530614600943652 0 1 0
8237 1 1.160504075831936 13.38584984908587 5.537772116420179 0 1 0
8232 3 2.495617073401653 12.551131617731425 7.746391118193462 0 1 0
8221 1 5.102491635564647 10.7026848644133 7.763369392668724 0 1 0
8236 3 5.151655730856046 13.482004550506403 7.7662461870656525 0 1 0
8225 1 9.078698164830538 10.69514029001105 5.522874436426179 0 1 0
8238 3 6.43036362317641 12.53701364053602 5.485602580412635 0 1 0
8240 1 9.101424843318963 13.460875161894819 5.573136023250073 0 1 0
8224 1 7.754260259331283 11.631869112504413 7.81259359145816 0 1 0
17871 1 10.395048686176173 9.761919882740171 7.852740683006624 0 1 0
17873 3 12.908017120188967 10.63912254516206 7.759984968367342 0 1 0
17872 3 11.740342231680263 11.691096716499477 5.526292477327215 0 1 0
17891 3 14.21435641121368 12.533139163182572 5.552371573172967 0 1 0
17888 2 12.96477259926573 13.403627482785973 7.849390240240662 0 1 0
17886 1 10.431262812944716 12.57995686984013 7.836266984875275 0 1 0
17879 1 16.821522150158913 10.641720739192412 5.530285345474767 0 1 0
17894 1 16.800369706196328 13.450170554716202 5.540804649425371 0 1 0
17877 1 15.484880882695853 11.606777125602926 7.846323132023974 0 1 0
17889 3 18.111475858709664 12.540599881386523 7.819894928240305 0 1 0
17875 1 19.39363567210913 11.561942017618811 5.550872463886216 0 1 0
8233 1 3.825603862105613 14.349362124933467 5.494070866509501 0 1 0
8247 1 2.526506236316606 15.273757816835975 7.791746008195861 0 1 0
8252 3 1.2166834614294666 16.153577636411992 5.481462279986168 0 1 0
8248 3 3.824283863738103 17.127388345112358 5.5065437580915 0 1 0
8262 1 2.4946248976894796 18.04285509933299 7.789479376077866 0 1 0
8251 1 5.196687903354843 16.211301495829925 7.764879530978253 0 1 0
8239 1 7.8064280470047 14.37940119501224 7.7884369183539395 0 1 0
8253 1 6.480699884664024 15.351245253884388 5.548791258990356 0 1 0
8255 3 9.151028473014657 16.245371191838093 5.545548947503434 0 1 0
8268 2 6.490449041875904 18.087470029833565 5.602304278221166 0 1 0
8254 3 7.860766324394686 17.10789299465682 7.8185848742306865 0 1 0
17887 2 11.645333996673912 14.372232067454991 5.534055447831165 0 1 0
17901 2 10.39471802382218 15.286281888017788 7.868906744219821 0 1 0
17906 2 14.238089485632862 15.312416610041193 5.5743520566331375 0 1 0
17902 2 11.687996516068422 17.167954216775755 5.591367185772092 0 1 0
17921 2 14.330193225445845 18.119010328558076 5.588044388494136 0 1 0
17903 3 12.944371772994712 16.227825887877728 7.8362503350433625 0 1 0
17916 2 10.35184672314205 18.073012460728364 7.846594948090638 0 1 0
17892 1 15.504172303032666 14.385389714653988 7.8518097545635 0 1 0
17890 1 19.397214742455642 14.35914201178215 5.541936123507455 0 1 0
17904 1 18.08642148461297 15.350497142957588 7.855073999385242 0 1 0
17909 3 16.837765237301276 16.261846727538863 5.573950927641377 0 1 0
17907 2 15.51892716308266 17.131266862253604 7.849522650678132 0 1 0
17919 2 18.104608814481242 18.093029767607362 7.829779771715779 0 1 0
17905 1 19.405689460605107 17.184709366749807 5.540714341791581 0 1 0
8266 1 5.231745431093972 18.93835564883246 7.793480663998786 0 1 0
8267 1 1.2561306616526684 18.947474530767277 5.560506059710225 0 1 0
8263 1 3.945548923207448 19.88262039501984 5.539582526369045 0 1 0
8282 1 1.2966028170372736 21.750793027129916 5.5940012095922 0 1 0
8278 2 3.9011693322187995 22.643319919088032 5.5486646584648405 0 1 0
8277 1 2.549815734111555 20.82363041065765 7.79493770346004 0 1 0
8281 3 5.281310677102779 21.769473484381976 7.781091924892433 0 1 0
8270 2 9.162205836264302 18.93482062696808 5.563658427351883 0 1 0
8269 2 7.822837375906028 19.885577072071086 7.816566970412715 0 1 0
8283 3 6.520228413227472 20.870728161361203 5.565570741106502 0 1 0
8285 2 9.111579122807067 21.71158115882718 5.625412403743909 0 1 0
8284 2 7.826120117989619 22.658562244262644 7.85843930569919 0 1 0
17918 2 12.988693564991749 18.94470710218359 7.860554345723977 0 1 0
17917 3 11.706176056236199 19.924992363760637 5.619929580859485 0 1 0
17936 3 14.219784415767482 20.81167919008044 5.618857625616142 0 1 0
17932 2 11.685455896540535 22.651587424131918 5.584635058947178 0 1 0
17933 2 12.950775631853858 21.664755527995414 7.7687350891779134 0 1 0
17931 3 10.413591620484464 20.822567197416916 7.834655240211368 0 1 0
17924 3 16.86204328999961 18.969830270678266 5.609480001220066 0 1 0
17922 3 15.560168015106665 19.871009190759985 7.798750743880954 0 1 0
17939 2 16.80200334569518 21.672655427360766 5.541913610379335 0 1 0
17934 2 18.084076913518647 20.844959942676358 7.7937900915660325 0 1 0
17937 2 15.591057173918148 22.62206316459887 7.8446032232790825 0 1 0
17935 3 19.451321491984274 22.644445855473414 5.606467216562607 0 1 0
17920 3 19.419830223440783 19.94844565441172 5.533266277333596 0 1 0
8292 1 2.609707335408256 23.523745878134267 7.780121232567319 0 1 0
8297 2 1.3061395170042185 24.44891600234798 5.604232307446869 0 1 0
8293 3 3.9436007367898185 25.44144056573759 5.6052124872880364 0 1 0
887 2 1.2212914490661877 27.277878433876708 5.620237225807474 0 0 0
882 3 2.572262187761694 26.313196543756245 7.752741764072641 0 0 0
886 2 5.204154839025148 27.23937936704647 7.811829261042874 0 0 0
8296 3 5.227922449805415 24.470526889943223 7.769671735714343 0 1 0
8298 2 6.523503943791181 23.614814799583442 5.6474582738458405 0 1 0
8300 3 9.159489259511876 24.449463696404376 5.6239023757108555 0 1 0
888 3 6.4504867678618725 26.350432988647597 5.602439616608927 0 0 0
890 2 9.06352120935461 27.22219725817618 5.6007008321684815 0 0 0
8299 2 7.791845111332449 25.433019411752237 7.769694099392928 0 1 0
17946 3 10.392851921399506 23.53385561947558 7.843373102290703 0 1 0
17951 3 14.253974481070642 23.529851360090703 5.569035488820674 0 1 0
17948 2 12.99097816559119 24.42190688915411 7.8264485137548565 0 1 0
17947 2 11.712678562194782 25.443972153741832 5.623609714168335 0 1 0
10541 3 14.23852739792046 26.262053327709175 5.6134940624453895 0 0 0
10536 2 10.406861874911208 26.310791187606437 7.86965070162044 0 0 0
10538 3 12.963880945992535 27.21850687739443 7.799361306327695 0 0 0
17949 3 18.204083365328273 23.55337456794998 7.829273771225729 0 1 0
17954 2 16.838982599104735 24.428086961768354 5.6519678410316105 0 1 0
10544 1 16.850469234192474 27.174707848974762 5.614698479932593 0 0 0
17952 1 15.558609205862597 25.33175558001184 7.856534622750522 0 1 0
10539 3 18.195290729714195 26.269194522157736 7.897613097978156 0 0 0
17950 2 19.47313423200541 25.388251897272543 5.605663960338544 0 1 0
883 2 3.8673909611875303 28.13627283239559 5.55310590985807 0 0 0
897 2 2.5677226421357915 29.09273628067457 7.799341522705625 0 0 0
902 3 1.2717456155631437 30.047530475993646 5.589238347959321 0 0 0
898 2 3.8886316625920876 30.93811069592513 5.617293658180279 0 0 0
912 2 2.5344289737032906 31.82734459539763 7.86955703560285 0 0 0
901 3 5.133929332154521 30.040678044646068 7.781354995459853 0 0 0
889 3 7.845977967841956 28.15743257456906 7.782038885412514 0 0 0
903 2 6.500720456401544 29.087535921069325 5.598013031106797 0 0 0
905 3 9.04822683097626 29.9979394960606 5.599518801684627 0 0 0
918 3 6.4664137237658705 31.792892038951486 5.581365545344843 0 0 0
904 2 7.7571830752915805 30.91924785102969 7.786572506809578 0 0 0
10537 3 11.65317331514212 28.096436225789898 5.612357314051159 0 0 0
10551 2 10.384596947624622 29.09600714515056 7.795721997096287 0 0 0
10556 1 14.251148201018642 29.08494994738052 5.572431207683438 0 0 0
10552 2 11.633174235484162 30.877768714346804 5.586385300082596 0 0 0
10571 1 14.21326625528557 31.865246716502266 5.671856344901606 0 0 0
10553 3 12.910905874141527 29.992483195251328 7.829482443443352 0 0 0
10566 2 10.414157440478101 31.87311407376461 7.8444155414461605 0 0 0
10542 1 15.584283139851712 28.177787698945625 7.821204007873389 0 0 0
10540 1 19.52396051606621 28.147421794924412 5.629579904313598 0 0 0
10554 1 18.23394816991827 29.086421725584092 7.887102272413497 0 0 0
10559 3 16.9033847580426 30.007968342813736 5.587399365078188 0 0 0
10569 1 18.24278896810575 31.902748078680467 7.839989894210803 0 0 0
10557 1 15.57106092768617 30.941043771615398 7.870702711639175 0 0 0
10555 1 19.585735711541933 30.98986259866301 5.617054094209866 0 0 0
8342 2 2.4637253842557345 1.4928688023531833 12.308813734999807 0 1 0
8347 3 1.1351180663776328 2.3254497699268857 10.039203758504618 0 1 0
8343 3 3.7283666941839932 3.3223801690459585 10.07652042954675 0 1 0
8362 2 1.1291217864079428 5.104789589541865 10.078121909222729 0 1 0
8357 1 2.3685916072553774 4.182143241121477 12.30909940669012 0 1 0
8361 1 5.097587578651345 5.135243643873203 12.323543488719176 0 1 0
8346 1 5.07963944887998 2.3210841477573676 12.28013446804099 0 1 0
8363 1 6.385901636681113 4.21892889421085 10.085999661590996 0 1 0
8365 1 9.020675470774997 5.153088365325737 10.094458972331246 0 1 0
8350 3 9.038727228036242 2.3753411604444072 10.121808752924414 0 1 0
8349 3 7.711736846473698 3.286439245978708 12.325139401519188 0 1 0
8348 1 6.359924911125193 1.4596671926415385 10.094675878862306 0 1 0
18001 3 14.261393501797771 1.3383461122528186 10.077376068761364 0 1 0
17996 1 10.36064439025455 1.4404628573988036 12.331467511493733 0 1 0
17997 1 11.672629169134376 3.2817872671384403 10.05993381053139 0 1 0
18016 1 14.232807313564935 4.152442853840194 10.097053026155638 0 1 0
18011 1 10.369701789337244 4.192259325379973 12.315669575688522 0 1 0
17998 3 12.981942354968387 2.345112980870178 12.311831895422692 0 1 0
18013 1 12.99969133346968 5.151755776893854 12.351054589475206 0 1 0
17999 1 18.135429342823713 1.3777283195349697 12.409454059246281 0 1 0
18000 1 19.443794709947664 3.2135089384580207 10.101282341582948 0 1 0
18019 1 16.81518694404791 5.049429804708904 10.105934417876183 0 1 0
18004 1 16.829570937115943 2.3117168901526144 10.091722982972641 0 1 0
18002 3 15.545337021575422 3.2542239705163154 12.422538249590362 0 1 0
18014 3 18.142305191120506 4.150114859152681 12.416060420338233 0 1 0
8358 1 3.7070238113145106 6.07331785903397 10.077722145312064 0 1 0
8377 2 1.1625987512170881 7.92992601195295 10.113434888174497 0 1 0
8373 1 3.731294453268079 8.831602656388046 10.06549163217267 0 1 0
8372 3 2.4558518244996583 6.9375246626316445 12.314147261873767 0 1 0
8376 1 5.0768719944947875 7.904025721850903 12.319321398114749 0 1 0
8364 1 7.742336479229112 6.052887697748781 12.312644550402926 0 1 0
8378 3 6.409031684051195 6.980438338267847 10.078187764393535 0 1 0
8380 1 9.046589350703384 7.901883961070286 10.07566484759434 0 1 0
8379 1 7.702387789992912 8.868072158421096 12.311500144055966 0 1 0
18012 3 11.668989869235668 6.061489534878178 10.08817184802721 0 1 0
18031 3 14.232997091961872 7.010301423287619 10.06648602731365 0 1 0
18027 2 11.633422558976052 8.795462668520695 10.093645840953299 0 1 0
18026 3 10.350216354800116 7.051553098382639 12.316840428875663 0 1 0
18028 1 12.976251874174203 7.916925247193793 12.349507904094104 0 1 0
18017 1 15.549479646544894 6.032147759752916 12.382233990621652 0 1 0
18015 1 19.457716897179605 5.973744360531445 10.119124065946929 0 1 0
18034 3 16.799468493822157 7.851095243074362 10.168497059966175 0 1 0
18032 1 15.489042174555689 8.791720335513238 12.37688689553672 0 1 0
18029 1 18.1108538143496 6.90851398281232 12.409577573603181 0 1 0
18030 1 19.43038883044837 8.8032249262221 10.102260495441213 0 1 0
8387 1 2.4116446312958484 9.750772016917022 12.307779860043393 0 1 0
8392 3 1.1324330985066413 10.726761506285174 10.050712013897476 0 1 0
8388 1 3.7801174706301897 11.652116669555484 10.024013583390849 0 1 0
8407 3 1.151358362901582 13.39130964009027 10.057610150190051 0 1 0
8402 1 2.441816182879885 12.469031689157772 12.290793883179322 0 1 0
8391 3 5.083893026060941 10.676220953592601 12.314035764988692 0 1 0
8406 3 5.082430233617702 13.43735996897899 12.307503996464455 0 1 0
8393 1 6.422016407764381 9.784429269893904 10.057331688671983 0 1 0
8395 3 9.077936516634495 10.719048720152973 10.126332076558715 0 1 0
8408 1 6.4601215075567655 12.575612478100844 10.071938391531885 0 1 0
8410 3 9.137480006846861 13.479540501737493 10.083972046539003 0 1 0
8394 1 7.727225921222379 11.710796318112045 12.30947636112438 0 1 0
18046 1 14.17935415167686 9.776234850324789 10.08816517873516 0 1 0
18041 1 10.383829049720067 9.825840076548516 12.272292505179163 0 1 0
18043 3 12.966887703789714 10.693670659316385 12.37830976795525 0 1 0
18042 2 11.71795955936119 11.642368271104942 10.05226761023603 0 1 0
18061 3 14.241314429331677 12.561303547720456 10.139295180815875 0 1 0
18058 2 12.955397474969585 13.429474545228194 12.250126976229987 0 1 0
18056 2 10.327772857549418 12.579044198410637 12.302150868925873 0 1 0
18044 1 18.106093028531124 9.720337775485831 12.38482540018219 0 1 0
18045 3 19.377631306743023 11.602040760031235 10.142973474081773 0 1 0
18049 1 16.784818282859963 10.664935048446603 10.090338891823107 0 1 0
18064 1 16.829429019759733 13.457119321937602 10.139759025668546 0 1 0
18047 3 15.49264803621662 11.606045832821852 12.3499049643983 0 1 0
18059 1 18.101299129787474 12.545908737328773 12.378123447758828 0 1 0
8403 1 3.784572447288216 14.315126899276734 10.025231695872893 0 1 0
8417 1 2.4818501591264472 15.220608023494906 12.259833191281544 0 1 0
8422 1 1.1609629832918962 16.146494355641455 10.045751473944572 0 1 0
8418 3 3.8544756406628546 17.0660318712385 10.05579997116486 0 1 0
8432 1 2.5262124952671723 17.99941625331465 12.281070623589732 0 1 0
8421 3 5.181518230538447 16.129788201896 12.256648866577821 0 1 0
8409 2 7.748544833575465 14.38948290310687 12.280011969241889 0 1 0
8423 1 6.483193983200892 15.251681264652559 10.03271476399418 0 1 0
8425 3 9.116142539370637 16.18336708472303 10.103516737711955 0 1 0
8438 1 6.5075935893303525 18.01761467258844 10.038692553392403 0 1 0
8424 3 7.779522665648235 17.04158182924713 12.307802775926376 0 1 0
18057 3 11.643455109492212 14.358334766503603 10.094604101243524 0 1 0
18076 2 14.20084283606981 15.291591933199586 10.11601168575591 0 1 0
18071 2 10.393922850422186 15.348257968473986 12.304088235484068 0 1 0
18072 2 11.657923981723684 17.08399628251239 10.096595637600192 0 1 0
18091 2 14.27635884351629 18.060108510130625 10.159372444525443 0 1 0
18073 3 12.983061367632757 16.24300158063978 12.367958978417317 0 1 0
18086 2 10.41125151712626 18.098589662381716 12.361544550176092 0 1 0
18060 1 19.42094665567406 14.383417007416055 10.09322287663872 0 1 0
18062 2 15.55224614955018 14.338784109838155 12.378053633327902 0 1 0
18074 3 18.10123726634831 15.355929931414911 12.37522695330729 0 1 0