 # Bcc Nb oriented X=[11-2], Y=[111], Z=[1-10].
  
       38640  atoms
           3  atom types
 
      0.000000000000      78.037712450000  xlo xhi
      0.000000000000     126.916290020000  ylo yhi
      0.000000000000      63.077132010000  zlo zhi
 
Masses
 
            1   47.86700000             # Ti
            2   92.90638000             # Nb
            3   50.94150000             # V
 
Atoms # atomic
 
         1    1        3.901885622500       0.000000000000       2.252754984973
         2    2        5.202514423459       1.839366062187       0.000000000000
         3    2        0.000000000000       0.000000000000       0.000000000000
         4    3        1.300628800959       1.839366062187       2.252754984973
         5    2        6.503142444041       0.919683665675       2.252754984973
         6    3        2.601256821541       0.919683665675       0.000000000000
         7    2       11.705656867500       0.000000000000       2.252754984973
         8    3       13.006285668459       1.839366062187       0.000000000000
         9    2        7.803771245000       0.000000000000       0.000000000000
        10    2        9.104400045959       1.839366062187       2.252754984973
        11    1       14.306913689041       0.919683665675       2.252754984973
        12    2       10.405028066541       0.919683665675       0.000000000000
        13    1       19.509428112500       0.000000000000       2.252754984973
        14    1       20.810056913459       1.839366062187       0.000000000000
        15    1       15.607542490000       0.000000000000       0.000000000000
        16    1       16.908171290959       1.839366062187       2.252754984973
        17    2       22.110684934041       0.919683665675       2.252754984973
        18    2       18.208799311541       0.919683665675       0.000000000000
        19    2       27.313199357500       0.000000000000       2.252754984973
        20    1       28.613828158459       1.839366062187       0.000000000000
        21    1       23.411313735000       0.000000000000       0.000000000000
        22    1       24.711942535959       1.839366062187       2.252754984973
        23    1       29.914456179041       0.919683665675       2.252754984973
        24    1       26.012570556541       0.919683665675       0.000000000000
        25    1       35.116970602500       0.000000000000       2.252754984973
        26    1       36.417599403459       1.839366062187       0.000000000000
        27    3       31.215084980000       0.000000000000       0.000000000000
        28    3       32.515713780959       1.839366062187       2.252754984973
        29    1       37.718227424041       0.919683665675       2.252754984973
        30    1       33.816341801541       0.919683665675       0.000000000000
        31    1       42.920741847500       0.000000000000       2.252754984973
        32    2       44.221370648459       1.839366062187       0.000000000000
        33    2       39.018856225000       0.000000000000       0.000000000000
        34    2       40.319485025959       1.839366062187       2.252754984973
        35    2       45.521998669041       0.919683665675       2.252754984973
        36    2       41.620113046541       0.919683665675       0.000000000000
        37    2       50.724513092500       0.000000000000       2.252754984973
        38    2       52.025141893459       1.839366062187       0.000000000000
        39    1       46.822627470000       0.000000000000       0.000000000000
        40    3       48.123256270959       1.839366062187       2.252754984973
        41    3       53.325769914041       0.919683665675       2.252754984973
        42    3       49.423884291541       0.919683665675       0.000000000000
        43    3       58.528284337500       0.000000000000       2.252754984973
        44    2       59.828913138459       1.839366062187       0.000000000000
        45    3       54.626398715000       0.000000000000       0.000000000000
        46    3       55.927027515959       1.839366062187       2.252754984973
        47    1       61.129541159041       0.919683665675       2.252754984973
        48    1       57.227655536541       0.919683665675       0.000000000000
        49    3       66.332055582500       0.000000000000       2.252754984973
        50    1       67.632684383459       1.839366062187       0.000000000000
        51    1       62.430169960000       0.000000000000       0.000000000000
        52    3       63.730798760959       1.839366062187       2.252754984973
        53    3       68.933312404041       0.919683665675       2.252754984973
        54    1       65.031426781541       0.919683665675       0.000000000000
        55    2       74.135826827500       0.000000000000       2.252754984973
        56    1       75.436455628459       1.839366062187       0.000000000000
        57    3       70.233941205000       0.000000000000       0.000000000000
        58    3       71.534570005959       1.839366062187       2.252754984973
        59    3       76.737083649041       0.919683665675       2.252754984973
        60    2       72.835198026541       0.919683665675       0.000000000000
        61    3        3.901885622500       2.759049727862       2.252754984973
        62    3        5.202514423459       4.598415790050       0.000000000000
        63    3        0.000000000000       2.759049727862       0.000000000000
        64    1        1.300628800959       4.598415790050       2.252754984973
        65    3        6.503142444041       3.678733393538       2.252754984973
        66    2        2.601256821541       3.678733393538       0.000000000000
        67    1       11.705656867500       2.759049727862       2.252754984973
        68    2       13.006285668459       4.598415790050       0.000000000000
        69    2        7.803771245000       2.759049727862       0.000000000000
        70    1        9.104400045959       4.598415790050       2.252754984973
        71    2       14.306913689041       3.678733393538       2.252754984973
        72    2       10.405028066541       3.678733393538       0.000000000000
        73    2       19.509428112500       2.759049727862       2.252754984973
        74    2       20.810056913459       4.598415790050       0.000000000000
        75    2       15.607542490000       2.759049727862       0.000000000000
        76    1       16.908171290959       4.598415790050       2.252754984973
        77    1       22.110684934041       3.678733393538       2.252754984973
        78    1       18.208799311541       3.678733393538       0.000000000000
        79    1       27.313199357500       2.759049727862       2.252754984973
        80    3       28.613828158459       4.598415790050       0.000000000000
        81    1       23.411313735000       2.759049727862       0.000000000000
        82    3       24.711942535959       4.598415790050       2.252754984973
        83    2       29.914456179041       3.678733393538       2.252754984973
        84    1       26.012570556541       3.678733393538       0.000000000000
        85    1       35.116970602500       2.759049727862       2.252754984973
        86    3       36.417599403459       4.598415790050       0.000000000000
        87    2       31.215084980000       2.759049727862       0.000000000000
        88    3       32.515713780959       4.598415790050       2.252754984973
        89    2       37.718227424041       3.678733393538       2.252754984973
        90    1       33.816341801541       3.678733393538       0.000000000000
        91    1       42.920741847500       2.759049727862       2.252754984973
        92    1       44.221370648459       4.598415790050       0.000000000000
        93    2       39.018856225000       2.759049727862       0.000000000000
        94    3       40.319485025959       4.598415790050       2.252754984973
        95    1       45.521998669041       3.678733393538       2.252754984973
        96    3       41.620113046541       3.678733393538       0.000000000000
        97    1       50.724513092500       2.759049727862       2.252754984973
        98    3       52.025141893459       4.598415790050       0.000000000000
        99    3       46.822627470000       2.759049727862       0.000000000000
       100    3       48.123256270959       4.598415790050       2.252754984973
       101    3       53.325769914041       3.678733393538       2.252754984973
       102    3       49.423884291541       3.678733393538       0.000000000000
       103    2       58.528284337500       2.759049727862       2.252754984973
       104    3       59.828913138459       4.598415790050       0.000000000000
       105    3       54.626398715000       2.759049727862       0.000000000000
       106    1       55.927027515959       4.598415790050       2.252754984973
       107    1       61.129541159041       3.678733393538       2.252754984973
       108    3       57.227655536541       3.678733393538       0.000000000000
       109    1       66.332055582500       2.759049727862       2.252754984973
       110    3       67.632684383459       4.598415790050       0.000000000000
       111    3       62.430169960000       2.759049727862       0.000000000000
       112    1       63.730798760959       4.598415790050       2.252754984973
       113    2       68.933312404041       3.678733393538       2.252754984973
       114    2       65.031426781541       3.678733393538       0.000000000000
       115    3       74.135826827500       2.759049727862       2.252754984973
       116    3       75.436455628459       4.598415790050       0.000000000000
       117    3       70.233941205000       2.759049727862       0.000000000000
       118    1       71.534570005959       4.598415790050       2.252754984973
       119    2       76.737083649041       3.678733393538       2.252754984973
       120    2       72.835198026541       3.678733393538       0.000000000000
       121    3        3.901885622500       5.518099455725       2.252754984973
       122    3        5.202514423459       7.357465517912       0.000000000000
       123    1        0.000000000000       5.518099455725       0.000000000000
       124    3        1.300628800959       7.357465517912       2.252754984973
       125    1        6.503142444041       6.437783121400       2.252754984973
       126    1        2.601256821541       6.437783121400       0.000000000000
       127    1       11.705656867500       5.518099455725       2.252754984973
       128    1       13.006285668459       7.357465517912       0.000000000000
       129    2        7.803771245000       5.518099455725       0.000000000000
       130    3        9.104400045959       7.357465517912       2.252754984973
       131    2       14.306913689041       6.437783121400       2.252754984973
       132    1       10.405028066541       6.437783121400       0.000000000000
       133    3       19.509428112500       5.518099455725       2.252754984973
       134    3       20.810056913459       7.357465517912       0.000000000000
       135    2       15.607542490000       5.518099455725       0.000000000000
       136    1       16.908171290959       7.357465517912       2.252754984973
       137    1       22.110684934041       6.437783121400       2.252754984973
       138    1       18.208799311541       6.437783121400       0.000000000000
       139    2       27.313199357500       5.518099455725       2.252754984973
       140    2       28.613828158459       7.357465517912       0.000000000000
       141    2       23.411313735000       5.518099455725       0.000000000000
       142    2       24.711942535959       7.357465517912       2.252754984973
       143    2       29.914456179041       6.437783121400       2.252754984973
       144    3       26.012570556541       6.437783121400       0.000000000000
       145    1       35.116970602500       5.518099455725       2.252754984973
       146    1       36.417599403459       7.357465517912       0.000000000000
       147    2       31.215084980000       5.518099455725       0.000000000000
       148    2       32.515713780959       7.357465517912       2.252754984973
       149    2       37.718227424041       6.437783121400       2.252754984973
       150    2       33.816341801541       6.437783121400       0.000000000000
       151    2       42.920741847500       5.518099455725       2.252754984973
       152    1       44.221370648459       7.357465517912       0.000000000000
       153    2       39.018856225000       5.518099455725       0.000000000000
       154    2       40.319485025959       7.357465517912       2.252754984973
       155    2       45.521998669041       6.437783121400       2.252754984973
       156    1       41.620113046541       6.437783121400       0.000000000000
       157    1       50.724513092500       5.518099455725       2.252754984973
       158    2       52.025141893459       7.357465517912       0.000000000000
       159    1       46.822627470000       5.518099455725       0.000000000000
       160    2       48.123256270959       7.357465517912       2.252754984973
       161    1       53.325769914041       6.437783121400       2.252754984973
       162    2       49.423884291541       6.437783121400       0.000000000000
       163    2       58.528284337500       5.518099455725       2.252754984973
       164    2       59.828913138459       7.357465517912       0.000000000000
       165    2       54.626398715000       5.518099455725       0.000000000000
       166    2       55.927027515959       7.357465517912       2.252754984973
       167    2       61.129541159041       6.437783121400       2.252754984973
       168    2       57.227655536541       6.437783121400       0.000000000000
       169    2       66.332055582500       5.518099455725       2.252754984973
       170    2       67.632684383459       7.357465517912       0.000000000000
       171    2       62.430169960000       5.518099455725       0.000000000000
       172    2       63.730798760959       7.357465517912       2.252754984973
       173    3       68.933312404041       6.437783121400       2.252754984973
       174    1       65.031426781541       6.437783121400       0.000000000000
       175    2       74.135826827500       5.518099455725       2.252754984973
       176    3       75.436455628459       7.357465517912       0.000000000000
       177    2       70.233941205000       5.518099455725       0.000000000000
       178    1       71.534570005959       7.357465517912       2.252754984973
       179    2       76.737083649041       6.437783121400       2.252754984973
       180    1       72.835198026541       6.437783121400       0.000000000000
       181    1        3.901885622500       8.277149183587       2.252754984973
       182    2        5.202514423459      10.116515245775       0.000000000000
       183    2        0.000000000000       8.277149183587       0.000000000000
       184    1        1.300628800959      10.116515245775       2.252754984973
       185    2        6.503142444041       9.196832849263       2.252754984973
       186    2        2.601256821541       9.196832849263       0.000000000000
       187    1       11.705656867500       8.277149183587       2.252754984973
       188    1       13.006285668459      10.116515245775       0.000000000000
       189    1        7.803771245000       8.277149183587       0.000000000000
       190    2        9.104400045959      10.116515245775       2.252754984973
       191    2       14.306913689041       9.196832849263       2.252754984973
       192    2       10.405028066541       9.196832849263       0.000000000000
       193    2       19.509428112500       8.277149183587       2.252754984973
       194    2       20.810056913459      10.116515245775       0.000000000000
       195    2       15.607542490000       8.277149183587       0.000000000000
       196    2       16.908171290959      10.116515245775       2.252754984973
       197    1       22.110684934041       9.196832849263       2.252754984973
       198    2       18.208799311541       9.196832849263       0.000000000000
       199    2       27.313199357500       8.277149183587       2.252754984973
       200    1       28.613828158459      10.116515245775       0.000000000000
       201    1       23.411313735000       8.277149183587       0.000000000000
       202    1       24.711942535959      10.116515245775       2.252754984973
       203    1       29.914456179041       9.196832849263       2.252754984973
       204    1       26.012570556541       9.196832849263       0.000000000000
       205    1       35.116970602500       8.277149183587       2.252754984973
       206    1       36.417599403459      10.116515245775       0.000000000000
       207    1       31.215084980000       8.277149183587       0.000000000000
       208    1       32.515713780959      10.116515245775       2.252754984973
       209    3       37.718227424041       9.196832849263       2.252754984973
       210    2       33.816341801541       9.196832849263       0.000000000000
       211    3       42.920741847500       8.277149183587       2.252754984973
       212    1       44.221370648459      10.116515245775       0.000000000000
       213    1       39.018856225000       8.277149183587       0.000000000000
       214    3       40.319485025959      10.116515245775       2.252754984973
       215    2       45.521998669041       9.196832849263       2.252754984973
       216    2       41.620113046541       9.196832849263       0.000000000000
       217    1       50.724513092500       8.277149183587       2.252754984973
       218    2       52.025141893459      10.116515245775       0.000000000000
       219    2       46.822627470000       8.277149183587       0.000000000000
       220    2       48.123256270959      10.116515245775       2.252754984973
       221    2       53.325769914041       9.196832849263       2.252754984973
       222    3       49.423884291541       9.196832849263       0.000000000000
       223    3       58.528284337500       8.277149183587       2.252754984973
       224    2       59.828913138459      10.116515245775       0.000000000000
       225    2       54.626398715000       8.277149183587       0.000000000000
       226    1       55.927027515959      10.116515245775       2.252754984973
       227    2       61.129541159041       9.196832849263       2.252754984973
       228    2       57.227655536541       9.196832849263       0.000000000000
       229    2       66.332055582500       8.277149183587       2.252754984973
       230    3       67.632684383459      10.116515245775       0.000000000000
       231    3       62.430169960000       8.277149183587       0.000000000000
       232    2       63.730798760959      10.116515245775       2.252754984973
       233    2       68.933312404041       9.196832849263       2.252754984973
       234    2       65.031426781541       9.196832849263       0.000000000000
       235    2       74.135826827500       8.277149183587       2.252754984973
       236    2       75.436455628459      10.116515245775       0.000000000000
       237    1       70.233941205000       8.277149183587       0.000000000000
       238    3       71.534570005959      10.116515245775       2.252754984973
       239    2       76.737083649041       9.196832849263       2.252754984973
       240    3       72.835198026541       9.196832849263       0.000000000000
       241    1        3.901885622500      11.036198911450       2.252754984973
       242    1        5.202514423459      12.875566242800       0.000000000000
       243    3        0.000000000000      11.036198911450       0.000000000000
       244    1        1.300628800959      12.875566242800       2.252754984973
       245    1        6.503142444041      11.955882577125       2.252754984973
       246    3        2.601256821541      11.955882577125       0.000000000000
       247    2       11.705656867500      11.036198911450       2.252754984973
       248    2       13.006285668459      12.875566242800       0.000000000000
       249    1        7.803771245000      11.036198911450       0.000000000000
       250    1        9.104400045959      12.875566242800       2.252754984973
       251    1       14.306913689041      11.955882577125       2.252754984973
       252    1       10.405028066541      11.955882577125       0.000000000000
       253    1       19.509428112500      11.036198911450       2.252754984973
       254    1       20.810056913459      12.875566242800       0.000000000000
       255    2       15.607542490000      11.036198911450       0.000000000000
       256    3       16.908171290959      12.875566242800       2.252754984973
       257    1       22.110684934041      11.955882577125       2.252754984973
       258    1       18.208799311541      11.955882577125       0.000000000000
       259    3       27.313199357500      11.036198911450       2.252754984973
       260    3       28.613828158459      12.875566242800       0.000000000000
       261    2       23.411313735000      11.036198911450       0.000000000000
       262    3       24.711942535959      12.875566242800       2.252754984973
       263    3       29.914456179041      11.955882577125       2.252754984973
       264    1       26.012570556541      11.955882577125       0.000000000000
       265    1       35.116970602500      11.036198911450       2.252754984973
       266    1       36.417599403459      12.875566242800       0.000000000000
       267    2       31.215084980000      11.036198911450       0.000000000000
       268    2       32.515713780959      12.875566242800       2.252754984973
       269    3       37.718227424041      11.955882577125       2.252754984973
       270    3       33.816341801541      11.955882577125       0.000000000000
       271    1       42.920741847500      11.036198911450       2.252754984973
       272    2       44.221370648459      12.875566242800       0.000000000000
       273    2       39.018856225000      11.036198911450       0.000000000000
       274    2       40.319485025959      12.875566242800       2.252754984973
       275    3       45.521998669041      11.955882577125       2.252754984973
       276    3       41.620113046541      11.955882577125       0.000000000000
       277    3       50.724513092500      11.036198911450       2.252754984973
       278    3       52.025141893459      12.875566242800       0.000000000000
       279    3       46.822627470000      11.036198911450       0.000000000000
       280    3       48.123256270959      12.875566242800       2.252754984973
       281    1       53.325769914041      11.955882577125       2.252754984973
       282    3       49.423884291541      11.955882577125       0.000000000000
       283    3       58.528284337500      11.036198911450       2.252754984973
       284    3       59.828913138459      12.875566242800       0.000000000000
       285    2       54.626398715000      11.036198911450       0.000000000000
       286    1       55.927027515959      12.875566242800       2.252754984973
       287    3       61.129541159041      11.955882577125       2.252754984973
       288    1       57.227655536541      11.955882577125       0.000000000000
       289    3       66.332055582500      11.036198911450       2.252754984973
       290    1       67.632684383459      12.875566242800       0.000000000000
       291    3       62.430169960000      11.036198911450       0.000000000000
       292    3       63.730798760959      12.875566242800       2.252754984973
       293    3       68.933312404041      11.955882577125       2.252754984973
       294    2       65.031426781541      11.955882577125       0.000000000000
       295    1       74.135826827500      11.036198911450       2.252754984973
       296    1       75.436455628459      12.875566242800       0.000000000000
       297    3       70.233941205000      11.036198911450       0.000000000000
       298    2       71.534570005959      12.875566242800       2.252754984973
       299    3       76.737083649041      11.955882577125       2.252754984973
       300    1       72.835198026541      11.955882577125       0.000000000000
       301    1        3.901885622500      13.795248639312       2.252754984973
       302    2        5.202514423459      15.634615970663       0.000000000000
       303    2        0.000000000000      13.795248639312       0.000000000000
       304    3        1.300628800959      15.634615970663       2.252754984973
       305    2        6.503142444041      14.714932304988       2.252754984973
       306    2        2.601256821541      14.714932304988       0.000000000000
       307    2       11.705656867500      13.795248639312       2.252754984973
       308    1       13.006285668459      15.634615970663       0.000000000000
       309    1        7.803771245000      13.795248639312       0.000000000000
       310    2        9.104400045959      15.634615970663       2.252754984973
       311    1       14.306913689041      14.714932304988       2.252754984973
       312    2       10.405028066541      14.714932304988       0.000000000000
       313    2       19.509428112500      13.795248639312       2.252754984973
       314    2       20.810056913459      15.634615970663       0.000000000000
       315    2       15.607542490000      13.795248639312       0.000000000000
       316    1       16.908171290959      15.634615970663       2.252754984973
       317    1       22.110684934041      14.714932304988       2.252754984973
       318    2       18.208799311541      14.714932304988       0.000000000000
       319    3       27.313199357500      13.795248639312       2.252754984973
       320    2       28.613828158459      15.634615970663       0.000000000000
       321    1       23.411313735000      13.795248639312       0.000000000000
       322    1       24.711942535959      15.634615970663       2.252754984973
       323    1       29.914456179041      14.714932304988       2.252754984973
       324    2       26.012570556541      14.714932304988       0.000000000000
       325    2       35.116970602500      13.795248639312       2.252754984973
       326    2       36.417599403459      15.634615970663       0.000000000000
       327    3       31.215084980000      13.795248639312       0.000000000000
       328    3       32.515713780959      15.634615970663       2.252754984973
       329    2       37.718227424041      14.714932304988       2.252754984973
       330    3       33.816341801541      14.714932304988       0.000000000000
       331    3       42.920741847500      13.795248639312       2.252754984973
       332    3       44.221370648459      15.634615970663       0.000000000000
       333    3       39.018856225000      13.795248639312       0.000000000000
       334    2       40.319485025959      15.634615970663       2.252754984973
       335    2       45.521998669041      14.714932304988       2.252754984973
       336    3       41.620113046541      14.714932304988       0.000000000000
       337    2       50.724513092500      13.795248639312       2.252754984973
       338    2       52.025141893459      15.634615970663       0.000000000000
       339    2       46.822627470000      13.795248639312       0.000000000000
       340    3       48.123256270959      15.634615970663       2.252754984973
       341    3       53.325769914041      14.714932304988       2.252754984973
       342    2       49.423884291541      14.714932304988       0.000000000000
       343    2       58.528284337500      13.795248639312       2.252754984973
       344    3       59.828913138459      15.634615970663       0.000000000000
       345    3       54.626398715000      13.795248639312       0.000000000000
       346    2       55.927027515959      15.634615970663       2.252754984973
       347    2       61.129541159041      14.714932304988       2.252754984973
       348    3       57.227655536541      14.714932304988       0.000000000000
       349    1       66.332055582500      13.795248639312       2.252754984973
       350    1       67.632684383459      15.634615970663       0.000000000000
       351    3       62.430169960000      13.795248639312       0.000000000000
       352    3       63.730798760959      15.634615970663       2.252754984973
       353    3       68.933312404041      14.714932304988       2.252754984973
       354    3       65.031426781541      14.714932304988       0.000000000000
       355    2       74.135826827500      13.795248639312       2.252754984973
       356    2       75.436455628459      15.634615970663       0.000000000000
       357    2       70.233941205000      13.795248639312       0.000000000000
       358    3       71.534570005959      15.634615970663       2.252754984973
       359    3       76.737083649041      14.714932304988       2.252754984973
       360    3       72.835198026541      14.714932304988       0.000000000000
       361    1        3.901885622500      16.554298367175       2.252754984973
       362    3        5.202514423459      18.393665698525       0.000000000000
       363    1        0.000000000000      16.554298367175       0.000000000000
       364    3        1.300628800959      18.393665698525       2.252754984973
       365    3        6.503142444041      17.473982032850       2.252754984973
       366    2        2.601256821541      17.473982032850       0.000000000000
       367    3       11.705656867500      16.554298367175       2.252754984973
       368    2       13.006285668459      18.393665698525       0.000000000000
       369    1        7.803771245000      16.554298367175       0.000000000000