LAMMPS data file via write_data, version 2 Aug 2023, timestep = 4511, units = metal

38640 atoms
3 atom types

0.41480834445228626 78.45876137554775 xlo xhi
0.6920788742209191 127.58360393577935 ylo yhi
0.3341757860834748 63.41857160391658 zlo zhi

Masses

1 92.90600000000001
2 47.88
3 50.942

Atoms # atomic

4 3 1.6187223771846602 2.428385537571191 2.562494539247584 0 0 0
6 3 3.0251632369943824 1.591819135906414 0.36278056331082104 0 0 0
1 1 4.355768323716646 0.7098080878133549 2.644685168239578 0 0 0
61 1 4.3120337644928615 3.337948769322913 2.6217932925433676 0 0 0
2 2 5.571549991803754 2.443610337513828 0.39275319049356094 0 0 0
5 3 6.993281755347095 1.6064847645715936 2.7535014003520084 0 0 0
10 2 9.501227050856313 2.420664562326022 2.6883435995316227 0 0 0
69 1 8.234966437828195 3.298050413481717 0.387805591924634 0 0 0
12 2 10.8168798345088 1.5380959541966963 0.3733725258446529 0 0 0
67 1 12.04226630760681 3.399638946259938 2.6574561618872616 0 0 0
11 1 14.74970426993124 1.5750629312602 2.660944446934569 0 0 0
16 1 17.381673901900612 2.472727719651411 2.641281225447684 0 0 0
64 1 1.7450014803639382 5.185664734019454 2.6243729678340717 0 0 0
66 3 3.109404996296748 4.313855805204902 0.39034464803189817 0 0 0
65 3 6.857812291745014 4.256705513897208 2.6895271839484787 0 0 0
121 1 4.2563112850650775 6.162558800964949 2.6528573243521087 0 0 0
62 1 5.607363190101651 5.183171989910199 0.38275306904478507 0 0 0
70 1 9.530830165448638 5.228735057188428 2.7167013774014355 0 0 0
129 1 8.245534765634448 6.1162140820061 0.3447155935649842 0 0 0
72 2 10.767604519460647 4.3712056296677515 0.38328953344278804 0 0 0
127 2 12.109569963037368 6.142043938299809 2.647098436310344 0 0 0
135 1 16.067327677268977 6.098243169201102 0.34724612252994 0 0 0
71 1 14.76275949531767 4.333602171698555 2.685178518512238 0 0 0
131 1 14.664815701282379 7.018998416542418 2.624972771535269 0 0 0
133 3 19.916510811952627 6.113586351696087 2.54243672595664 0 0 0
76 2 17.351106244170033 5.278192622604213 2.638227805703543 0 0 0
124 2 1.7265428989326665 7.946533290855934 2.5156771808833898 0 0 0
186 3 2.9574543180642605 9.780802870080889 0.344672995849405 0 0 0
125 1 6.86252262500946 7.124225381116341 2.6745564396233803 0 0 0
181 3 4.194283239529975 8.974177533009069 2.628454511423178 0 0 0
185 1 6.899560180451501 9.860697541348202 2.652623772914501 0 0 0
130 2 9.522618027930761 7.976716488245638 2.629623389165928 0 0 0
132 3 10.858997680347123 7.059178862782364 0.4296597869215508 0 0 0
187 2 12.132929071554196 8.947515992445378 2.643423288790664 0 0 0
192 1 10.839786078467835 9.793596524381275 0.35411718550673954 0 0 0
128 2 13.439183632944564 7.9241924514722 0.3616433292143843 0 0 0
191 2 14.797844008422746 9.819261628696554 2.6236558229489506 0 0 0
195 1 16.06838647072468 9.026218284927392 0.41692346223130977 0 0 0
136 3 17.39269401923633 8.004118705545778 2.604238629537511 0 0 0
138 3 18.67215773203219 7.038744287367528 0.3984418064907548 0 0 0
184 2 1.774017456488275 10.771647284393488 2.500613369511019 0 0 0
246 1 3.0606150367267277 12.604393103014976 0.37720852236354824 0 0 0
182 1 5.546596765106913 10.728628989215604 0.3645133068063116 0 0 0
241 3 4.338607054291907 11.684542803461788 2.6936289418866997 0 0 0
245 1 6.899189766763964 12.679861119636055 2.613393616539967 0 0 0
190 2 9.473437739685544 10.793621008810405 2.6139996328347106 0 0 0
249 3 8.166069210021464 11.742432992498967 0.3512526862654632 0 0 0
247 1 12.055298835048271 11.70685146352406 2.7055617078717398 0 0 0
252 1 10.760079927913731 12.800434280044737 0.3837276604405804 0 0 0
19638 3 18.552119533686028 15.423363155544811 31.76845715484326 0 0 0
251 1 14.777536641538555 12.548464771754613 2.49610508243706 0 0 0
196 2 17.454047949987448 10.821423468501669 2.5940181865974314 0 0 0
258 2 18.71110203594989 12.68065506622595 0.38823664844898054 0 0 0
244 1 1.7350276864605094 13.501084663590765 2.6143741529875055 0 0 0
304 2 1.747050250718626 16.309495780817787 2.677076242497464 0 0 0
306 2 3.064327119745495 15.328368400653943 0.4253688012938174 0 0 0
242 2 5.609709984788069 13.532271409374108 0.3946210270501443 0 0 0
301 3 4.343538967575432 14.455806687516453 2.669440921925077 0 0 0
305 2 6.924792281127754 15.377908973861102 2.6642768676084563 0 0 0
250 2 9.467912004080821 13.595142378376698 2.683111934391314 0 0 0
310 3 9.623369987224606 16.29277697774836 2.6223908556809494 0 0 0
307 2 12.093957172505915 14.50756529185712 2.633302415782051 0 0 0
311 1 14.736222412610912 15.383436379560969 2.5667712723049827 0 0 0
256 3 17.429767573611084 13.589355076962633 2.5792469230724295 0 0 0
316 2 17.352770067267784 16.277942149595496 2.596831991444332 0 0 0
318 3 18.748612200919453 15.409284143967882 0.40762585841959253 0 0 0
2766 3 2.9362863084600934 1.5697654176530043 4.826736345512721 0 0 0
2823 3 0.4222824350078133 3.3908192465421685 4.808519622742811 0 0 0
2762 2 5.555944620105205 2.491144862362426 4.8945889987049584 0 0 0
2829 2 8.173233022255346 3.397994786428812 4.9310734844556094 0 0 0
2772 3 10.775681681736105 1.551467260476071 4.969871492670373 0 0 0
2768 3 13.371408312329502 2.497351476293008 4.95082527688245 0 0 0
2835 2 16.039019487896226 3.3451984434595756 4.886066796235573 0 0 0
2778 2 18.569283583032316 1.5472939063573596 4.881024188095959 0 0 0
2826 3 3.0371299425970184 4.213643479412611 4.835771484984128 0 0 0
2886 2 2.9950117712205944 7.0018914576035005 4.847263966512462 0 0 0
2822 3 5.565289398841947 5.1617349779435955 4.891447155797435 0 0 0
2889 1 8.17454282632044 6.2072110387366015 4.9174349133665505 0 0 0
2832 2 10.849880220503518 4.297940932974363 4.919740537884851 0 0 0
2828 2 13.475540973523096 5.2625331431170075 4.919451989054469 0 0 0
2895 3 16.06110238048272 6.109694221156662 4.962290933075793 0 0 0
2838 1 18.60824854742265 4.341929900400006 4.862288387786207 0 0 0
2946 2 3.108057656293155 9.916214316591615 4.826959803735483 0 0 0
2943 2 0.43187934350362217 8.92704708306623 4.806940498487143 0 0 0
2882 2 5.552883412483025 8.043677159564629 4.864273850855895 0 0 0
2949 2 8.165375891167066 9.022669774637194 4.8463425798706075 0 0 0
2892 3 10.935326046678178 7.129412255957069 4.884940162423063 0 0 0
2952 2 10.809641740193344 9.89646971333428 4.886846013816594 0 0 0
2888 3 13.393356635294891 8.025301879091002 4.879945041435383 0 0 0
2955 1 16.06913807462543 8.943902397363294 4.915560621547222 0 0 0
2898 2 18.602458504196736 7.064804722790076 4.826376618983114 0 0 0
2958 3 18.685650840406446 9.870460369135374 4.78996849836114 0 0 0
3003 2 0.4766210786510353 11.724180908811086 4.781836306507915 0 0 0
3006 3 3.0912397882024383 12.615552730228176 4.830674444246097 0 0 0
2942 3 5.573793362154486 10.851993511268565 4.8793476515884215 0 0 0
3009 3 8.185008609984425 11.774932449719513 4.841508173052431 0 0 0
3012 3 10.767225929220436 12.687309131198893 4.894122530784336 0 0 0
2948 2 13.427048327084599 10.813207630000393 4.885003959592453 0 0 0
3015 1 16.09435991428045 11.691029896552708 4.826685372641637 0 0 0
3018 1 18.684999446469067 12.670982514144569 4.796459217930689 0 0 0
3063 2 0.45822485925788525 14.557068127848302 4.7733655031179385 0 0 0
3066 3 3.00832314556531 15.339565354181678 4.852535769554191 0 0 0
3002 3 5.585334707812454 13.559725450951033 4.881197097484928 0 0 0
3062 1 5.6239273353043275 16.302015082694016 4.884321074852415 0 0 0
3069 1 8.223246238897413 14.552044696233134 4.873578961103995 0 0 0
3072 3 10.816706198807537 15.40355975096367 4.856912318066952 0 0 0
3008 1 13.371562336666624 13.603981879147607 4.880743348159355 0 0 0
3068 3 13.392815639983928 16.297622578073938 4.791023305359099 0 0 0
3075 3 16.113878801586658 14.558076708631754 4.768211402363135 0 0 0
3078 3 18.680057689608937 15.405297136345059 4.750380006390484 0 0 0
2764 2 1.6796893624077494 2.4586506911396966 7.014646877263916 0 0 0
5526 2 3.0261483715431794 1.5266011680908254 9.438735356573181 0 0 0
2761 2 4.300526133418725 0.7039433132390513 7.074126584481956 0 0 0
2821 3 4.33007810557123 3.3531474123138763 7.091682222560427 0 0 0
5522 3 5.596950023233749 2.4890072184183696 9.28247228407353 0 0 0
2765 2 6.960637536177652 1.5596376580816078 7.110322116457586 0 0 0
2770 2 9.60875739800177 2.4910535370533387 7.1968559658571705 0 0 0
5589 3 8.132679882073232 3.398083408257671 9.333086981680998 0 0 0
2827 3 12.166484313887127 3.410655049352412 7.078587586706561 0 0 0
5532 3 10.86017622056034 1.5226691442297442 9.363556739236964 0 0 0
2771 1 14.716851227393226 1.5800400942699897 7.092399888673935 0 0 0
5528 3 13.426408933489727 2.4699762906977214 9.279104773218354 0 0 0
5535 3 16.00452427030004 0.7316723145678973 9.25041347389459 0 0 0
5595 3 15.998612210324506 3.4144023864970108 9.34338998954475 0 0 0
2833 1 19.89647072502182 3.450339031809668 7.11682455689497 0 0 0
2776 3 17.249866388934404 2.522315980391141 7.141734032024279 0 0 0
5538 1 18.567365727119817 1.602172812747439 9.35221976426021 0 0 0
16876 3 17.378397115423006 16.32372052672483 29.595476066800323 0 0 0
2824 1 1.6860116843436537 5.2089429405768914 7.023367640909149 0 0 0
5586 2 3.0464984956937107 4.2615203243225785 9.26714833306076 0 0 0
5643 1 0.4467753212574142 6.111856681236961 9.335172108867031 0 0 0
2825 3 6.8439856774301315 4.225500895111388 7.096849306078024 0 0 0
2881 1 4.291951669442393 6.14298590137631 7.115986014873795 0 0 0
5582 2 5.679945815436968 5.202988753782479 9.324168396087273 0 0 0
2830 1 9.55884647170413 5.1918977308437295 7.106390084485719 0 0 0
5649 3 8.238576272820298 6.100264095802571 9.411196539682493 0 0 0
2887 3 12.15990003866169 6.124676658372663 7.032486300319475 0 0 0
5592 1 10.814396990777459 4.264128517518216 9.291898788943385 0 0 0
5652 2 10.851462922401927 6.989642854629283 9.353860018987522 0 0 0
2831 2 14.765802875999713 4.260196640855218 7.162549878933639 0 0 0
5588 2 13.438742344175418 5.200939924554472 9.37551448338904 0 0 0
5655 3 15.993379652273068 6.101755144519287 9.326703470940721 0 0 0
2893 3 19.888733705521172 6.102262853566556 7.067236852331852 0 0 0
2836 3 17.27854834004082 5.240872892197259 7.126051375462324 0 0 0
5598 3 18.55165806855314 4.405088528424081 9.348810247801925 0 0 0
2884 2 1.6982941686698159 8.006796318148787 7.099668332141373 0 0 0
5646 2 3.076471164067985 7.052812602291592 9.391688085988465 0 0 0
5706 1 3.0331730055958617 9.816196728167322 9.268233252944665 0 0 0
2885 1 6.871426575167354 7.055225011516629 7.111527481854683 0 0 0
2941 3 4.288041008163228 8.982407886143822 7.021183199327242 0 0 0
2945 1 6.913079775030599 9.915775279108097 7.023098481099511 0 0 0
5642 1 5.653256480119545 7.961052412725784 9.393888020758075 0 0 0
2890 2 9.530935957800232 7.985479461146141 7.090131135647812 0 0 0
5709 1 8.291559459225805 8.863545032382214 9.349283344559188 0 0 0
2947 2 12.193374913114612 8.87661220903099 7.091041379327372 0 0 0
5712 1 10.826396752694729 9.77605741943884 9.286611937285093 0 0 0
2891 2 14.730580061249718 7.037959609504318 7.102396124829985 0 0 0
2951 2 14.789728669983731 9.855758759561903 7.157230630719379 0 0 0
5648 1 13.477299027292396 7.911067983925919 9.29735863031494 0 0 0
5715 3 16.083225387650284 8.910604601579585 9.405531401348474 0 0 0
2896 1 17.316869302783175 8.023612950177089 7.080444655716498 0 0 0
5658 1 18.621012342700794 7.053367336876368 9.372035492553747 0 0 0
5718 1 18.629558318506362 9.867470150654741 9.386145073428786 0 0 0
2944 1 1.7235631035496395 10.815906465572969 6.964714943781783 0 0 0
5766 1 3.120443071721628 12.711641896686562 9.253204734765868 0 0 0
3001 3 4.370849788641232 11.736017752198816 7.0135352737885075 0 0 0
5702 1 5.707697382379449 10.850275534597706 9.260981606431539 0 0 0
3005 3 6.961519513061389 12.713405559031704 7.048040318098853 0 0 0
2950 1 9.492528468167045 10.775953594928536 6.985672858550174 0 0 0
5769 2 8.28170989286555 11.698296730985263 9.230682580240748 0 0 0
3007 3 12.088378362516476 11.705546446341343 6.9990464634143965 0 0 0
5772 1 10.77978643203245 12.774583507940742 9.215485217608336 0 0 0
3011 1 14.687587198887142 12.666967645463474 7.087737153122798 0 0 0
5708 1 13.452365844687483 10.756404184744659 9.33091674340045 0 0 0
5775 1 16.044137139793428 11.722543878570434 9.377631532571678 0 0 0
2956 2 17.40502814328085 10.853590251221112 7.104542327976934 0 0 0
5778 3 18.646619054864548 12.66600206498544 9.372794073134756 0 0 0
3004 2 1.8023028267830565 13.601025311527536 7.046194253721541 0 0 0
3064 3 1.7405950432864776 16.392202877946186 7.003812393402735 0 0 0
5823 1 0.443544137099256 14.5032798531795 9.260981371078216 0 0 0
5826 1 3.1157197802915237 15.393127731414438 9.290318814055636 0 0 0
3061 1 4.36938195196362 14.518461516948587 7.02490572904067 0 0 0
5762 3 5.75933580384293 13.623198881065965 9.260609171475974 0 0 0
5822 1 5.699388818356101 16.37759265730106 9.304510826539758 0 0 0
3065 3 7.038179502831717 15.41516548503232 7.11139069535724 0 0 0
3010 3 9.507277515879213 13.620859767272949 7.0454445561938455 0 0 0
3070 3 9.542728534420464 16.33261742159302 7.101553561831181 0 0 0
5829 2 8.305288238823309 14.489426926605807 9.233239203447088 0 0 0
3067 2 12.048406028443468 14.48163557267134 7.066025373737169 0 0 0
5832 3 10.7447507637943 15.498313142451293 9.246836802257144 0 0 0
5768 3 13.374007599149403 13.615707629748634 9.397158831786399 0 0 0
5828 1 13.401322022573508 16.37418829018807 9.27716690477612 0 0 0
3071 1 14.682115107875878 15.442604384335748 7.096010673883494 0 0 0
5835 2 16.011243611414237 14.531757561543476 9.303165330762749 0 0 0
3016 1 17.394625788804497 13.660831095587332 7.073452651527753 0 0 0
3076 2 17.30786589980877 16.32467902388698 7.047942602390493 0 0 0
5838 2 18.664185871348682 15.413341923854086 9.374150912872055 0 0 0
5524 3 1.7335573254737773 2.4455326516902036 11.65437681373724 0 0 0
5525 2 6.915115664514612 1.520934148592687 11.59266159265588 0 0 0
5581 2 4.328519498034741 3.294659486206981 11.563312781209481 0 0 0
5530 3 9.552688229582033 2.4337255452774356 11.590495748539354 0 0 0
5587 2 12.128763241726247 3.3713331731111964 11.495416233264063 0 0 0
5531 1 14.679844123114576 1.5608401345996676 11.506815072375158 0 0 0
5536 3 17.346619033390436 2.477531124300542 11.57297349193309 0 0 0
5584 2 1.7188529250110884 5.154258573500961 11.586957442739147 0 0 0
5641 3 4.379317976889988 6.074132906194996 11.621226411127639 0 0 0
5585 1 6.939261213602933 4.215841799516431 11.521881950444046 0 0 0
5590 2 9.522265721542169 5.180742885829979 11.541540215437177 0 0 0
5645 3 6.99324077990634 7.012205813440744 11.600986946104554 0 0 0
5647 1 12.150498390009725 6.069829256691388 11.609335821784624 0 0 0
5591 3 14.799889348949632 4.309303714619672 11.51260875908895 0 0 0
5651 3 14.82847315197018 7.020313587926098 11.572401006130493 0 0 0
5596 1 17.354307137541028 5.225761136595868 11.55012336571564 0 0 0
5644 1 1.722998728688735 7.9245254292950875 11.620086907687556 0 0 0
5701 1 4.384390752627388 8.912651104949498 11.595130190104763 0 0 0
5705 1 6.9792770206288575 9.96017692051788 11.617503395638337 0 0 0
5650 3 9.52834365713558 7.950116089827115 11.618098826530412 0 0 0
5707 1 12.193034760018747 8.9107728068911 11.61307423400125 0 0 0
5711 1 14.794898999275668 9.8421150689596 11.6338852843947 0 0 0
5656 3 17.277184956561474 7.985392494385495 11.591578598069773 0 0 0
5713 1 19.91052718697615 8.981606582687082 11.638778375039719 0 0 0
5704 1 1.7222351501096786 10.772838378221788 11.555473987406858 0 0 0
5761 3 4.326704598050561 11.747166406670678 11.485787231988969 0 0 0
5765 2 6.973597955204148 12.687137485565028 11.489635262187322 0 0 0
5710 1 9.493686987436753 10.888008925815159 11.59833476619349 0 0 0
5767 1 12.132253549548524 11.800856422971458 11.62408695494053 0 0 0
5771 1 14.807600498541563 12.670329535132044 11.63261623201195 0 0 0
5716 3 17.30460451922062 10.793645611581356 11.71491582922275 0 0 0
5764 3 1.717026729002215 13.574462413562081 11.5138580751434 0 0 0
5824 1 1.7704877356775597 16.319293500481738 11.507830331603094 0 0 0
5821 2 4.376126949842605 14.48460234444599 11.53715296761228 0 0 0
5825 2 7.01266852622854 15.483126827493017 11.519244515322821 0 0 0
5770 3 9.530725082882666 13.617133480232235 11.58719770333897 0 0 0
5830 2 9.667869486964186 16.321469007501417 11.572736323372109 0 0 0
5827 1 12.090167874974478 14.574425719906909 11.613211590266348 0 0 0
5831 1 14.794415148329845 15.427339766776822 11.637343236174306 0 0 0
5776 2 17.39781538826306 13.559827655569618 11.552248430539413 0 0 0
5836 2 17.32083997000488 16.412367462305628 11.603670176687263 0 0 0
8286 3 2.9762569907765135 1.519892162365731 13.864453934598139 0 0 0
8343 3 0.44115908869480025 3.3168287319608445 13.771350296756083 0 0 0
8284 3 1.7113080764064401 2.4094957225270615 16.02387133165963 0 0 0
8282 1 5.57039900149032 2.40690907133791 13.819068665347112 0 0 0
8289 3 8.17674707009614 0.7037970484539965 13.889313364294873 0 0 0
8349 2 8.187228419857616 3.3214031315343426 13.820762424785618 0 0 0
8292 3 10.70117485094246 1.5534129081690444 13.825838661940825 0 0 0
8288 1 13.394686627604012 2.461494274166344 13.761722308521087 0 0 0
8355 1 16.042601430184167 3.364398750565106 13.800501354242865 0 0 0
8298 3 18.599978246060218 1.5850103527973602 13.848624239949114 0 0 0
8296 3 17.29278368845806 2.3978888578512043 16.03047272754093 0 0 0
8353 2 19.861200463191818 3.3725809514839473 16.100537827430323 0 0 0
8346 2 3.0074610104448602 4.178087672823592 13.90570671323184 0 0 0
8406 1 3.0245776425256716 6.980704401591038 13.869658960178198 0 0 0
8342 1 5.611906830735611 5.062844050913556 13.863114816957395 0 0 0
8409 1 8.300316259105644 6.056852465503011 13.848989588340448 0 0 0
8352 2 10.852875023312205 4.261713166969736 13.858460209923656 0 0 0
8348 1 13.518012545994864 5.269264835116462 13.879341310072789 0 0 0
8415 2 16.063253457101847 6.189829374969466 13.806148570725366 0 0 0
8351 2 14.736414618752491 4.287797947943921 16.090964930033902 0 0 0
8358 2 18.565629612704168 4.286095912311962 13.821076900340396 0 0 0
8466 2 3.032447550109857 9.808218601873058 13.796832875148473 0 0 0
8404 1 1.7624338437126383 7.937164461922015 16.106272924859216 0 0 0
8402 1 5.634313106607781 8.020734152863083 13.912787125966194 0 0 0
8469 1 8.254316914440242 9.051756974358302 13.958368749337437 0 0 0
8412 1 10.796374707466564 7.039832574807528 13.960311946412775 0 0 0
8472 1 10.871531112302343 9.973216408000926 13.97646324931436 0 0 0
8408 1 13.578834906238257 8.072512127923996 13.918390307285234 0 0 0
8475 3 16.107619587536572 8.984018244706446 13.822404213597737 0 0 0
8471 2 14.859225265823625 9.941000914693353 16.081388442702487 0 0 0
8418 1 18.624071627364625 7.129157456010415 13.893828857258146 0 0 0
8478 1 18.639162795427126 9.943347137787848 13.916373098923781 0 0 0
8526 1 3.155536757632177 12.58952715786002 13.799053391961554 0 0 0
8464 1 1.7760518672954837 10.701610474544125 16.101442914079048 0 0 0
8462 2 5.644316871941032 10.759786649844889 13.824550733104203 0 0 0
8521 3 4.465753028414279 11.687143258365989 16.11046531151581 0 0 0
8529 2 8.258895775150128 11.801112498276025 13.866919029257332 0 0 0
8525 3 6.975280147227236 12.560847893825304 16.097591417286363 0 0 0
8532 2 10.897427300221526 12.744648923926162 13.885583033756452 0 0 0
8527 3 12.26392843953886 11.710951726140696 16.08248551204227 0 0 0
8468 2 13.499778888098879 10.846889525571685 13.837423533252833 0 0 0
8535 3 16.068529128457502 11.717921385100373 13.942455032314832 0 0 0
8531 3 14.795103323800994 12.566675532535289 16.039791970405794 0 0 0
8538 2 18.644761786696513 12.650676644331057 13.858532089357968 0 0 0
8583 2 0.41963274525802946 14.415057660924159 13.792935959184021 0 0 0
8586 1 3.028537869390783 15.337768410535126 13.793696901907468 0 0 0
8524 2 1.7913934280522137 13.42877413416325 16.07556427860207 0 0 0
8584 2 1.7377092824992015 16.24510997631485 16.06926022949737 0 0 0
8522 1 5.773772037267431 13.446054629065872 13.729792987856923 0 0 0
8582 1 5.747335884855628 16.290382715060137 13.73507291220833 0 0 0
8581 2 4.4211214430396435 14.38122194532654 16.021872245487092 0 0 0
8589 3 8.378591336890763 14.45055199297056 13.77174315034029 0 0 0
8585 1 6.994692922078094 15.35937469839531 16.068886893148715 0 0 0
8530 3 9.510087227385654 13.560059333561775 15.988671420868243 0 0 0
8590 3 9.548982765562716 16.347668146919904 16.02798113381076 0 0 0
8592 3 10.855327545332035 15.433513119113396 13.839569890816744 0 0 0
8588 2 13.412011783940935 16.387724815375694 13.820714429441564 0 0 0
8587 1 12.133609822574835 14.499588064217747 15.974513932835642 0 0 0
8528 3 13.47177884725434 13.553514706236372 13.850035496905646 0 0 0
8595 2 16.03049645104344 14.476065022171932 13.86305233765214 0 0 0
8591 1 14.701466391235364 15.419650053406324 15.992541499352535 0 0 0
8598 1 18.558834437123288 15.357887255883298 13.807853895320926 0 0 0
8596 3 17.3264020733193 16.328426909920708 16.069999062949545 0 0 0
11103 3 0.43543203503836075 3.3661448975342787 18.364661117156103 0 0 0
11046 1 3.0690907305529267 1.4976063981080079 18.289842417432393 0 0 0
8341 3 4.296533843011952 3.3309642716496244 16.109532725070554 0 0 0
11042 2 5.694431525289185 2.4873951431680066 18.336592105634345 0 0 0
8285 3 6.982220402087672 1.48789909789202 16.159442491277044 0 0 0
8290 2 9.476919875849738 2.432931202607096 16.19367075703503 0 0 0
11109 3 8.259143669094959 3.4091986480932404 18.39495745168528 0 0 0
8347 1 12.04872331310711 3.3401007826244244 16.18625782129231 0 0 0
11052 3 10.791019904496814 1.4709447256065042 18.396569161141283 0 0 0
8291 2 14.702062987577095 1.4917942515035558 16.11819963960604 0 0 0
11048 1 13.513173763512347 2.4650698069093457 18.363027496811554 0 0 0
11115 2 16.043449355546773 3.2955656022108024 18.347457392418654 0 0 0
11058 1 18.533025818005036 1.6378646536448271 18.30728353154173 0 0 0
8344 1 1.7585459035944988 5.126349828580501 16.166228858024812 0 0 0
11106 1 3.046634256216025 4.257945700357026 18.326985468836806 0 0 0
11163 3 0.4835458092751673 6.06366154271588 18.442366307058336 0 0 0
11166 3 3.1147147414953382 7.013425284469617 18.373093042522537 0 0 0
8401 3 4.345801110473621 6.067233505270682 16.14103325585347 0 0 0
11102 3 5.6680634610458025 5.245259344416799 18.3870202184866 0 0 0
8345 1 6.970017945951239 4.173859201404693 16.233805323060423 0 0 0
8350 2 9.487764687117197 5.228492532338101 16.16423327925359 0 0 0
11169 3 8.311135919825196 6.125380686172118 18.397950547759958 0 0 0
8407 1 12.093944929562326 6.218564185972287 16.241816100090073 0 0 0
11112 2 10.859202842758458 4.298700002113446 18.385306744204286 0 0 0
11108 3 13.526362516122115 5.275170036442348 18.336844111226746 0 0 0
11175 3 16.042570859857978 6.076619112687463 18.400938016536045 0 0 0
8356 1 17.317591266601056 5.239049816531833 16.15237002862062 0 0 0
11118 2 18.59276895235592 4.392830576651387 18.382898815227303 0 0 0
8413 2 19.894386019239242 6.223987546955866 16.18851884127978 0 0 0
11226 1 3.059347050166778 9.815361797126831 18.367381125969054 0 0 0
8461 2 4.352537547887505 8.888831918212983 16.113155304661998 0 0 0
11162 1 5.677833981630009 7.943255611195645 18.301363462319856 0 0 0
8405 1 6.9629791766709594 7.063293317131387 16.204017655697328 0 0 0
8465 2 6.991993430218488 9.880621775544894 16.194321622817693 0 0 0
8410 2 9.538135755433949 8.044974998112485 16.227534656104933 0 0 0
11229 3 8.312278888569782 8.946634699745367 18.364480050182358 0 0 0
8467 2 12.192021939500068 8.992346913626024 16.202739202258947 0 0 0
11172 3 10.782073755151078 7.090289141859505 18.359615708508073 0 0 0
11232 3 10.774052424460544 9.81296780169129 18.337329167584265 0 0 0
8411 2 14.746230725432893 7.110667918021249 16.199967547101192 0 0 0
11168 3 13.4464736182214 8.02805699716 18.358701312934652 0 0 0
11235 1 16.024556911813463 8.968453930318526 18.282093697887625 0 0 0
8416 1 17.28903928276136 8.07452565673633 16.17310083162204 0 0 0
11178 3 18.614821015570648 7.126963043933167 18.407863623519276 0 0 0
11238 3 18.67505669269809 9.883654734988209 18.335563141291672 0 0 0
8473 3 19.905791481205615 8.979424979885152 16.18066677613903 0 0 0
11286 1 3.1384473848095342 12.758505359966541 18.423918008338493 0 0 0
11222 3 5.631714736318812 10.717737335417866 18.279642328993216 0 0 0
8470 2 9.64397017977296 10.877383287767046 16.166382973436985 0 0 0
11289 2 8.18348699289812 11.695527547619223 18.393680759102313 0 0 0
11292 1 10.756972973349766 12.570427596568477 18.287353807989483 0 0 0
11228 2 13.38049902904259 10.783212619306127 18.313404222121445 0 0 0
11295 3 16.071439928709605 11.648944645890968 18.25570100498664 0 0 0
8476 3 17.359356393160965 10.89276482806222 16.161066284598284 0 0 0
11298 3 18.62071959519914 12.543750652299295 18.37669638632917 0 0 0
8533 2 19.90972334775382 11.714527377028006 16.1664796032474 0 0 0
11346 2 3.0595427055493083 15.416689390392614 18.35788723867882 0 0 0
11282 2 5.732207734762126 13.509947016126036 18.344566481694468 0 0 0
11342 1 5.587836115031657 16.27390124525225 18.41056220206244 0 0 0
11349 1 8.246570638045357 14.47231079869339 18.28044700679914 0 0 0
11352 1 10.778563602625205 15.427937238182395 18.25916165917973 0 0 0
11348 1 13.37717021252054 16.415797630088793 18.30310649698113 0 0 0
11288 1 13.448545231404443 13.517102249861958 18.285986793185685 0 0 0
11355 1 16.03820172636439 14.413029234105952 18.297315033587356 0 0 0
8536 2 17.384116170543845 13.547225881871515 16.159221263887567 0 0 0
11358 1 18.678029205153173 15.31708257608486 18.34497058742443 0 0 0
11044 1 1.748066206935086 2.485745178651836 20.582238906975167 0 0 0
11101 1 4.406329494105057 3.377619479312069 20.537826854973282 0 0 0
11045 3 6.954382439833029 1.520882034511522 20.56242682291223 0 0 0
11050 1 9.603055908101286 2.54005592645092 20.61147345459052 0 0 0
11107 1 12.174322379437632 3.4120257968833565 20.57648172304398 0 0 0
11051 3 14.710257109580173 1.5236003863901937 20.61828965824092 0 0 0
11113 2 19.878579112553314 3.422909125679695 20.68909810483359 0 0 0
11056 3 17.204580074070392 2.4704615669590666 20.62770018753112 0 0 0
11104 3 1.7018073001525964 5.235422232269355 20.6285423023553 0 0 0
11161 3 4.3098869155944195 6.132878705192614 20.58985254875159 0 0 0
11105 2 6.932949691860163 4.2877848888225945 20.543353621934827 0 0 0
11110 2 9.590074752286963 5.258805502850728 20.62259111992262 0 0 0
11167 1 12.156632572954813 6.083527708105563 20.603696147755727 0 0 0
11111 2 14.710924716376583 4.278725714212403 20.62045553541129 0 0 0
11173 3 19.83499769849536 6.2106844225574385 20.63024489910829 0 0 0
11116 1 17.291661975232063 5.210275457041839 20.58644659670247 0 0 0
11164 1 1.7261794429228725 7.882415336686874 20.675755730992588 0 0 0
11221 1 4.3752826177602895 8.972670343353366 20.660666471763488 0 0 0
11165 1 7.005173793390979 7.052712897852765 20.614072331554073 0 0 0
11225 2 6.961695758472509 9.815933381782608 20.544656084048093 0 0 0
11170 1 9.525184325658946 8.016902314846279 20.690186544210967 0 0 0
11227 1 12.158813606984888 8.987784803013797 20.598467820840096 0 0 0
11171 1 14.754849013683325 7.085252333858633 20.629587868329306 0 0 0
11231 2 14.751129846387226 9.871817274404112 20.59235348570493 0 0 0
11233 2 19.890391471460884 8.960580856684444 20.63588962191321 0 0 0
11176 3 17.313551170311392 8.094526125319135 20.476460511137113 0 0 0
11224 2 1.6253344985789242 10.670855412036897 20.55578059699406 0 0 0
11281 2 4.277620961268868 11.674825829310558 20.59836664939136 0 0 0
11285 1 6.810779295739607 12.54647438408678 20.65099037885034 0 0 0
11230 3 9.453624110922062 10.773968647017249 20.624381286951202 0 0 0
11287 1 12.104301468660493 11.673233810992409 20.584440524497182 0 0 0
11291 1 14.701981520763523 12.571593159678217 20.573298976317858 0 0 0
11236 1 17.362251181369682 10.73083277356674 20.605175860324593 0 0 0
11284 2 1.6679624412043328 13.471175422793667 20.677041497035486 0 0 0
11344 1 1.6449538235045569 16.19521807386405 20.615557834236075 0 0 0
11341 2 4.401753668826299 14.479353645344727 20.688838804218523 0 0 0
11345 3 6.8794437456026225 15.399876078351989 20.71855487230428 0 0 0
11290 2 9.43665253597593 13.547600919985015 20.599398901907865 0 0 0
11350 1 9.374081004920747 16.328838390563487 20.637398873419542 0 0 0
11347 1 12.033202883776989 14.478712601289034 20.644805667701814 0 0 0
11351 1 14.68775332749507 15.477536539808833 20.695608040822652 0 0 0
11353 2 19.866759055068936 14.370900710609698 20.613030326447117 0 0 0
11296 1 17.300305632590828 13.46662199696456 20.62434512946873 0 0 0
11356 2 17.26022419683012 16.273265422811818 20.583700151912055 0 0 0
13804 2 1.6750031188182954 2.4433391139564677 25.140283428244967 0 0 0
13806 1 3.124558605175204 1.5542882893386076 23.004961308640826 0 0 0
13802 2 5.691843287653328 2.4124991134032854 22.796118889981866 0 0 0
13805 1 6.78257907840242 1.6182610821560726 25.080564287984895 0 0 0
13861 2 4.322491025005724 3.3778070379770577 25.133100373289167 0 0 0
13810 1 9.532380623382911 2.512188487514523 25.10864570266012 0 0 0
13869 1 8.292549431405888 3.4248214289301933 22.80083923196635 0 0 0
13812 3 10.895327165679337 1.593942344678799 22.83180940718206 0 0 0
13867 2 12.125682573607762 3.351956346459995 25.188438171307663 0 0 0
13808 2 13.406181510906821 2.4772164087366857 22.836686996708227 0 0 0
13807 3 12.083017688229477 0.6958262893953562 25.03292234679759 0 0 0
13811 1 14.65874215126463 1.6972062733015933 25.080333649546905 0 0 0
13875 2 16.022770792260058 3.395526250772751 22.922357978283692 0 0 0
13873 2 19.873330998430013 3.44459729104572 25.10059627759042 0 0 0
13816 3 17.303622840949696 2.497502299307831 25.06918150619709 0 0 0
13818 2 18.583974480249836 1.5867053995062728 22.879324365962617 0 0 0
13864 1 1.6454759875698068 5.134534473579072 25.066441025102122 0 0 0
13866 3 2.9589211075199247 4.298664680367925 22.775901470021 0 0 0
13926 2 2.948379013285676 6.985686177188963 22.84239126924848 0 0 0
13862 1 5.54849269169787 5.143762275623718 22.87672645293186 0 0 0
13921 1 4.226601369167691 6.1670064695363545 25.10069548162177 0 0 0
13865 2 6.973153358218514 4.324583459418831 25.151476155291633 0 0 0
13870 2 9.621793860726598 5.223686771542178 25.148637602946668 0 0 0