LAMMPS data file via write_data, version 2 Aug 2023, timestep = 6894, units = metal

38640 atoms
5 atom types

-0.059831061695002755 80.64804360169519 xlo xhi
-0.07271753758712235 131.1370021475884 ylo yhi
-0.04454863222327959 65.18322531222375 zlo zhi

Masses

1 92.90600000000001
2 180.948
3 47.88
4 50.942
5 91.22

Atoms # atomic

4 2 1.238526173302751 1.8731135097959157 2.126886745283635 0 0 0
5 1 6.527247171467458 0.7272480806649977 2.2506634347619694 0 0 0
61 4 3.860323268383776 2.8425519644239015 2.2989289030418036 0 0 0
10 5 9.294255034212938 1.6445245456771858 2.2313234845937333 0 0 0
67 5 12.103456058056734 2.7476196479834836 2.347540785097627 0 0 0
11 2 14.674872232235867 0.784026973696684 2.2986268536244734 0 0 0
16816 1 17.45890319878773 13.232826331253658 30.342314317685396 0 0 0
16 5 17.383902774886888 1.8061889595391776 2.365996256148001 0 0 0
18 5 18.814080495634457 0.8119778579319161 -0.014504758062978473 0 0 0
64 2 1.287939130073115 4.741494171136971 2.242784673228167 0 0 0
66 3 2.477463517206491 3.6310420457210255 -0.00944895738218837 0 0 0
65 2 6.535654426841777 3.6574318625679143 2.311084497430358 0 0 0
121 4 4.00957139997252 5.643527821988164 2.2692258288593257 0 0 0
62 5 5.193659053848764 4.63091619909648 -0.03739573466393064 0 0 0
70 5 9.246883086115409 4.712379089756815 2.286264935321965 0 0 0
127 3 11.98664981595774 5.7191605253087 2.3223973192331226 0 0 0
68 2 13.449274913674122 4.597249743600198 0.037049397202826136 0 0 0
71 4 14.777114393581055 3.711304822144214 2.3359757374958376 0 0 0
135 3 16.117560787478013 5.504881217830027 0.06162378612137381 0 0 0
76 1 17.460679688186318 4.6954920100964515 2.332358396432887 0 0 0
78 1 18.81423654376153 3.7325466381955184 0.006362715388089756 0 0 0
124 3 1.197841265066115 7.574579511877757 2.300160811935742 0 0 0
125 1 6.601776803115206 6.622107874762566 2.2328427571688323 0 0 0
181 5 3.9591491980516658 8.46390282848525 2.254829651560219 0 0 0
185 4 6.604701297691249 9.43101703398826 2.0783657340036203 0 0 0
130 1 9.238929367568009 7.563680644684395 2.3316470814522456 0 0 0
132 2 10.55061188977295 6.570036396258559 -0.006131467170083275 0 0 0
187 4 11.963924237938839 8.454896954770591 2.2795221490298077 0 0 0
128 5 13.298302593640726 7.598960742640375 0.02170262598055991 0 0 0
131 3 14.680050401263527 6.586396159215381 2.3056104849301553 0 0 0
191 1 14.756900312972256 9.479781671176594 2.178679937178354 0 0 0
136 5 17.497252766788804 7.62866876591307 2.3706392434336747 0 0 0
184 1 1.2386097764925474 10.403514486161134 2.303221403069065 0 0 0
241 2 4.060344408145306 11.351887407952702 2.302589754396528 0 0 0
245 3 6.639697032880436 12.30526313945867 2.2220840781099516 0 0 0
190 1 9.303424578406792 10.485704965040348 2.2849501986227967 0 0 0
247 5 12.036007229333473 11.316460888759067 2.1527138383274087 0 0 0
251 3 14.776888191127664 12.27054016452799 2.118575088124958 0 0 0
196 4 17.4160954242645 10.506947349621218 2.2010393500398306 0 0 0
253 3 20.090503442218655 11.370321623828337 2.228492808538601 0 0 0
244 3 1.3243830870718196 13.184641512317986 2.181674961048584 0 0 0
304 2 1.3721911630633528 15.983974161907181 2.2388401919832526 0 0 0
301 2 4.005201724770086 14.18758672895953 2.26547758652314 0 0 0
305 1 6.741818461696367 15.107252964060343 2.1561967463272964 0 0 0
250 3 9.339648036218122 13.26361540912353 2.20585140029418 0 0 0
310 5 9.421513984164118 16.148145286011104 2.0380716563873498 0 0 0
307 2 12.062251129953632 14.246028786774092 2.064973480473343 0 0 0
311 3 14.719186067919878 15.180973901363844 2.137603423507331 0 0 0
256 5 17.449182725583707 13.320940333621786 2.236438978274077 0 0 0
316 1 17.454569649919314 16.13436284799231 2.2244484875064683 0 0 0
2766 5 2.607193586387966 0.9595088705064466 4.495534517242035 0 0 0
2823 2 -0.01925341763758368 2.7962754310834184 4.522577446874771 0 0 0
2762 3 5.23572647694762 1.866411555189293 4.554832620598462 0 0 0
2829 5 7.94857090070387 2.777496732878793 4.62898972571069 0 0 0
2772 3 10.657508821086443 0.8158647491436731 4.600601245917241 0 0 0
2768 1 13.408950119726692 1.8032906864169762 4.7266429726062125 0 0 0
2835 3 16.116309008894426 2.7665216086258644 4.6994298239561525 0 0 0
2778 2 18.8376733772848 0.8276211286677296 4.6910985962369836 0 0 0
2826 4 2.6003793774059933 3.729804585791396 4.501841388906897 0 0 0
2822 2 5.213205294041772 4.635743968168167 4.63665037966463 0 0 0
2889 3 7.88709719986649 5.706743940866729 4.623761690796409 0 0 0
2832 3 10.610890742636855 3.8283040582682313 4.667937644886825 0 0 0
2828 5 13.37696316703488 4.6563337092164305 4.642616103107479 0 0 0
2895 5 16.197828194699703 5.701333817234864 4.652658433364638 0 0 0
2838 4 18.766917647521215 3.7047308997395176 4.682611260211955 0 0 0
2898 1 19.032661745142143 6.469439659961852 4.525355949310741 0 0 0
2886 5 2.584785966846139 6.495158548095324 4.652301579733955 0 0 0
2943 1 0.08049892223621281 8.38554710423554 4.7229711885834185 0 0 0
2946 3 2.569604965977179 9.419641283747348 4.657375858771774 0 0 0
2882 2 5.345746525532279 7.593133368653857 4.636175287401014 0 0 0
2949 3 7.897224462830832 8.53802763722217 4.474325456386767 0 0 0
2892 4 10.56537923438319 6.540232161190503 4.588035574980873 0 0 0
2952 3 10.561365741885115 9.33525033344745 4.529623248777108 0 0 0
2888 1 13.247460806364337 7.464405999555748 4.450920419409677 0 0 0
2955 1 16.083852281454327 8.610785264779196 4.572269761624376 0 0 0
2958 1 18.845438864867834 9.505879865066554 4.550546551388909 0 0 0
3003 3 -0.03564814887895378 11.178738551247177 4.593992225990022 0 0 0
3006 3 2.658155400485975 12.201918816819417 4.548607748413343 0 0 0
2942 3 5.261233815182196 10.358581104354354 4.595296760883106 0 0 0
3009 2 7.807818954736335 11.357127504030478 4.520687846040065 0 0 0
3012 3 10.525593342868632 12.225032513300224 4.580407374774948 0 0 0
2948 5 13.408350941675431 10.291963827500728 4.562615924038103 0 0 0
3015 3 16.1250802013911 11.423483484672236 4.589259917378906 0 0 0
3018 2 18.73106841366258 12.367178720962176 4.516230880191173 0 0 0
3066 5 2.6529133241015708 15.119602464607118 4.672595821518028 0 0 0
3063 2 -0.047108940640152565 14.02624092380173 4.542418654133533 0 0 0
3002 3 5.3671159142850415 13.205008665231357 4.64488876673761 0 0 0
3062 2 5.388644746817105 16.073031409146058 4.553521754774383 0 0 0
3069 2 8.018220004028185 14.354166373326548 4.70853297479442 0 0 0
3072 5 10.677521128418917 15.153833988534428 4.479769925294245 0 0 0
3008 5 13.367301905591857 13.232842603961865 4.526049069887299 0 0 0
3068 5 13.356478434517692 16.120586215082056 4.5071699337827145 0 0 0
3075 4 16.076393325356474 14.191197883255537 4.603749424616573 0 0 0
3078 3 18.78487459701741 15.18450441623491 4.507392420874363 0 0 0
2764 1 1.3161780838634363 1.802709284646689 6.92944972988875 0 0 0
5526 2 2.5709375903454923 0.8492383622301742 9.350824273946396 0 0 0
5583 2 0.03785843415735733 2.6974252742394906 9.381329619692371 0 0 0
2765 1 6.540243525540993 0.808315283841893 6.870492291901638 0 0 0
2821 3 3.8316390986005495 2.7835232167430486 7.0062699288009 0 0 0
5522 2 5.278990810046141 1.8807072497526376 9.345231741826165 0 0 0
2770 2 9.322677751934517 1.7764607605783356 6.966311712909704 0 0 0
5589 5 7.996693914694344 2.811794894944707 9.450903443818627 0 0 0
2767 5 11.98512564930721 -0.03447353291901923 6.941472238942224 0 0 0
2827 5 11.997087726718066 2.870851008522799 7.048905092561351 0 0 0
5532 1 10.63298901248742 0.9232198303412239 9.47683477253752 0 0 0
2771 3 14.784768031346774 0.9080083454716626 7.041451418293885 0 0 0
5528 2 13.40949504293449 1.9376439496370432 9.405183161660899 0 0 0
5595 5 16.148730681183853 2.6990480909692973 9.35334602733681 0 0 0
2776 3 17.5204202586554 1.7604586091608134 6.953881379259226 0 0 0
5538 5 18.873631405874892 0.7649057475610962 9.375324616229937 0 0 0
2824 2 1.3193817070938196 4.6578547474608385 6.932558740185422 0 0 0
5586 1 2.6461446700690083 3.7769402761101047 9.409542398262795 0 0 0
5643 2 0.02742508531465466 5.611264849685411 9.349573309207955 0 0 0
2825 5 6.532876014932827 3.7512209306899464 7.038432565939425 0 0 0
2881 1 3.9782820104444214 5.587233572634213 7.0591793589271115 0 0 0
5582 3 5.199120558258391 4.694653376166769 9.470501156784062 0 0 0
2830 3 9.304292099567439 4.73893885726036 7.036908981354157 0 0 0
5649 2 7.86705149152598 5.654051752255462 9.301947430570928 0 0 0
2887 1 11.911678259400718 5.611811461383183 6.970268906819012 0 0 0
5592 1 10.619467352153148 3.753207591768944 9.424706641004386 0 0 0
5588 3 13.223685745760461 4.698851500020306 9.388790328119708 0 0 0
2831 3 14.801899322197013 3.7725346649927665 7.03799513152814 0 0 0
5655 2 15.969997484218366 5.536221396458971 9.30764526881455 0 0 0
2836 3 17.513287625675225 4.628644568166138 6.970668927600455 0 0 0
5598 5 19.017654190289438 3.6924422310715914 9.335625161018003 0 0 0
2884 4 1.3381220901921878 7.5522493098382135 6.977541666500964 0 0 0
5646 1 2.711174704971256 6.6511866347977735 9.431517832582392 0 0 0
5703 2 0.04963649822650704 8.442093105295495 9.221320505228794 0 0 0
5706 4 2.7213116496656773 9.416947136702458 9.32785463797966 0 0 0
2885 3 6.570226649045962 6.625916727670977 7.006073713178214 0 0 0
2941 5 3.936833909208583 8.470108090170307 7.0396241840772795 0 0 0
5642 3 5.265892065156896 7.6047946803887285 9.42774696837113 0 0 0
2945 3 6.691854651839907 9.487809750465354 6.935202293680254 0 0 0
2890 2 9.14386610127519 7.565530509935089 6.815745565881017 0 0 0
5709 3 8.07214471609816 8.439428216856127 9.233003209976298 0 0 0
2947 5 11.932460087160228 8.470750435378275 6.8635969794538445 0 0 0
5652 2 10.56745343776477 6.643189589756714 9.29334220614221 0 0 0
5712 4 10.611212495028838 9.490846358342035 9.280985414158987 0 0 0
5648 5 13.308619247894745 7.563415263941641 9.290274965863647 0 0 0
2891 1 14.714664041711645 6.536774962368025 6.944489638349164 0 0 0
2951 1 14.624406679110853 9.573170238557037 7.071359297242953 0 0 0
5715 5 16.13369973075427 8.5230340235836 9.28632010630689 0 0 0
2896 1 17.583684023547306 7.525216640105477 6.9084173891294505 0 0 0
5658 5 18.789956775695547 6.627710556207281 9.298408521082521 0 0 0
5718 3 18.85609073389662 9.532739577140784 9.254165927622159 0 0 0
2944 4 1.363995307544722 10.309678162820585 6.992123345921493 0 0 0
5763 4 0.0003333473790116809 11.245138774852492 9.235965857871307 0 0 0
5766 5 2.625015419310463 12.08496509506691 9.299763480598424 0 0 0
3001 3 3.999909824573275 11.27051581947555 6.958507860603775 0 0 0
5702 4 5.315555310681648 10.323812830117998 9.247132884279067 0 0 0
3005 1 6.709054143025196 12.29632037332549 6.992048692071376 0 0 0
2950 1 9.34722087603275 10.414942375531371 6.896725570836231 0 0 0
5769 5 8.101713915211786 11.315979272061533 9.349656556180646 0 0 0
3007 5 11.995872696349801 11.455829944560298 6.996756003437937 0 0 0
5772 4 10.71978079521838 12.253474348947945 9.362824877671699 0 0 0
5708 3 13.304533442413677 10.383566630316126 9.418018336504367 0 0 0
3011 1 14.761340990573819 12.40812190686506 6.887300037201234 0 0 0
5775 1 16.024171669938063 11.360753950228451 9.322330662925793 0 0 0
2956 2 17.480125332309225 10.445205510085948 6.916385642378039 0 0 0
5778 2 18.7647239121593 12.413976204119502 9.28476193426932 0 0 0
3004 5 1.3132071806054113 13.152399540576392 6.919991948639071 0 0 0
3064 2 1.4029145500800702 16.110031985505962 7.1782761147757155 0 0 0
5826 1 2.6677134183794506 14.95507863299936 9.37800594890447 0 0 0
3061 1 4.064785198656114 14.058179523604046 6.932030153190112 0 0 0
3065 3 6.636168075787943 15.115763929832147 7.084803927638975 0 0 0
5762 5 5.412248461292598 13.228078115234416 9.310425584291588 0 0 0
5822 4 5.235989752434059 16.045436826779948 9.16217602645092 0 0 0
3010 3 9.341374227192096 13.221926631779295 7.021085111558041 0 0 0
3070 3 9.28735375451229 16.157772556781104 6.83815899470533 0 0 0
5829 4 8.049557314432608 14.130384473989487 9.209297696500915 0 0 0
3067 4 11.924362371206922 14.277460290525392 6.765020425362467 0 0 0
5832 5 10.669815893434466 15.089418817201945 9.146141471599524 0 0 0
5768 1 13.313243620774603 13.14091219641105 9.241067988931743 0 0 0
5828 1 13.363175000261055 16.025759847486565 9.210341452360002 0 0 0
3071 3 14.67377720593208 15.175469441898242 6.878742327192286 0 0 0
5835 5 16.024176515160555 14.213881325968881 9.250232375608604 0 0 0
3016 4 17.41669790831915 13.29994651367967 6.858232801544658 0 0 0
3076 5 17.392444143490508 16.165335675063254 6.943309601894187 0 0 0
5838 3 18.780262992671553 15.318917204668194 9.275160962157434 0 0 0
3073 5 20.087612192073994 14.329535297974932 6.862187229313167 0 0 0
5524 4 1.3204144678627612 1.7357988416237453 11.734036550108517 0 0 0
5525 3 6.546161117629306 0.9177149710002963 11.679011304580305 0 0 0
5581 2 3.9565869451963156 2.814307580311807 11.695886169501854 0 0 0
5530 3 9.312524697308511 1.8419321721562558 11.812994451559293 0 0 0
5527 1 11.932885971966485 0.0013177367999878849 11.749089273591313 0 0 0
5587 4 11.969531255535886 2.834984331395438 11.770051161702279 0 0 0
5531 4 14.80965713406591 0.8553444712298718 11.68592055615352 0 0 0
5536 1 17.406370524510933 1.7900670958777192 11.725069688874465 0 0 0
5584 1 1.3384876423031296 4.593394724374825 11.872947828220699 0 0 0
5585 4 6.630790225328232 3.7067421921891612 11.7438428152944 0 0 0
5641 3 3.859117226932362 5.671197245334462 11.756334863536274 0 0 0
5590 1 9.2691784606458 4.682724633580088 11.812961046515674 0 0 0
5647 1 11.909331906856295 5.706252884048849 11.753988025157685 0 0 0
5591 3 14.588109192888242 3.5582561053915303 11.69407623837622 0 0 0
5596 5 17.39851114797661 4.604371168786365 11.695517326012254 0 0 0
5644 1 1.3642018733123895 7.495214662840236 11.60912963391926 0 0 0
5645 5 6.599535006493816 6.512356132628178 11.739206221413305 0 0 0
5701 4 3.957735568547885 8.4230752958589 11.70480736180147 0 0 0
5705 5 6.614294832761359 9.436860931860586 11.575050723128829 0 0 0
5650 3 9.355310164021652 7.511632295435237 11.647690039561022 0 0 0
5707 2 11.998722419101993 8.529575757944194 11.63328516510426 0 0 0
5651 5 14.641750862910891 6.585639945529866 11.714146833435766 0 0 0
5711 4 14.697141339386574 9.47491286806238 11.692874217527061 0 0 0
5656 2 17.437896442572118 7.561073399870736 11.69600816602763 0 0 0
5704 4 1.3315972696411698 10.300498124018636 11.539104954565518 0 0 0
5761 2 3.9631136638767774 11.210464116019752 11.634594708788015 0 0 0
5765 1 6.695051468790916 12.269610573933255 11.62897299934469 0 0 0
5710 4 9.353960976967219 10.275504701192727 11.608053771999442 0 0 0
5767 1 11.996998679479939 11.243408123556495 11.631459890610707 0 0 0
5771 4 14.633187991189674 12.261059557551988 11.562311281931557 0 0 0
5716 5 17.37740502191133 10.400546737784415 11.605729260062013 0 0 0
5764 5 1.2359768044823771 13.225231280299635 11.626969231095435 0 0 0
5824 4 1.3415063383895547 16.08847922941248 11.538160965703018 0 0 0
5821 5 3.9644656614197245 14.286812050779524 11.747515991266248 0 0 0
5825 1 6.658277204229267 15.087933275489949 11.49305455236783 0 0 0
5770 4 9.326248012061452 13.100866185564533 11.524874863412483 0 0 0
5830 1 9.37397247786791 15.915318210308595 11.484950461126276 0 0 0
5827 5 12.066840057697126 14.00435550966575 11.588408413250333 0 0 0
5831 4 14.720352659300241 15.110106430941295 11.604350285276976 0 0 0
5776 2 17.290521481443058 13.251461038430486 11.671340492595794 0 0 0
5836 1 17.30699755193215 16.128499979508465 11.533712976966818 0 0 0
5833 5 20.063216432110767 14.208863051877433 11.681537948898688 0 0 0
8286 1 2.6614348465416624 0.9644088660208879 14.026269467459201 0 0 0
8282 2 5.367710519423243 1.9193841795233892 13.995384360992466 0 0 0
8289 2 8.031632837994582 0.0198370452833673 13.92098313692896 0 0 0
8349 4 8.036661137425792 2.859653194247863 13.937188676138987 0 0 0
8292 3 10.644115118699427 0.8568096008631689 14.043948774328012 0 0 0
8288 5 13.39351197175541 1.7399298828251002 13.96118901460861 0 0 0
8295 2 16.073089962873592 -0.026715507171075722 14.074419736223112 0 0 0
8355 3 16.159834535081234 2.737039290476331 14.067340475297643 0 0 0
8298 2 18.81666590249616 0.8443816304013604 14.05122007892791 0 0 0
8346 4 2.7092163835943306 3.761042447593078 14.03380317972268 0 0 0
8344 5 1.287823543415193 4.739439272535139 16.17789837858213 0 0 0
8403 4 -0.05155543833468992 5.633726073626779 13.88126744894288 0 0 0
8342 2 5.28326637017972 4.74214691433628 13.988434411940629 0 0 0
8409 3 7.950107893713745 5.553328523443153 14.084563609927281 0 0 0
8352 4 10.647161503106403 3.653137347354688 13.985122359963638 0 0 0
8348 5 13.288030636677611 4.713111723574214 14.021805687181839 0 0 0
8415 5 16.07645525940831 5.647458529211688 14.119253994839468 0 0 0
8358 1 18.819306588720544 3.637379129303793 14.038657978586553 0 0 0
8406 4 2.623081750152057 6.580804745574298 14.037640117662523 0 0 0
8463 2 0.0279162145835049 8.423785268654829 13.907890227733738 0 0 0
8466 4 2.644635140050873 9.337952082264263 13.891123986919956 0 0 0
8404 3 1.2652967721976114 7.520670213683001 16.220979941955193 0 0 0
8402 4 5.244827687526723 7.491566336058088 13.98452729375832 0 0 0
8461 2 3.8810792926252393 8.41022102489906 16.246780504108774 0 0 0
8469 2 8.020649676407883 8.35864407920045 13.929526825195653 0 0 0
8412 3 10.644729151597483 6.566760569257627 14.011072727630717 0 0 0
8472 1 10.659652039574986 9.326403127722251 13.930703224411142 0 0 0
8408 4 13.473425406452973 7.5953139730828525 14.02427853135925 0 0 0
8475 1 16.12711455106955 8.550530064097607 14.100604310121922 0 0 0
8418 5 18.90119480945666 6.578582230418199 14.071701226837677 0 0 0
8478 1 18.87746784243241 9.538786488725771 14.121641816804345 0 0 0
8526 5 2.6116762124656847 12.250545857219995 13.988399449293025 0 0 0
8464 5 1.255877137228078 10.375505404716137 16.239195198917027 0 0 0
8462 2 5.301296973975957 10.264778710233022 13.964624661721304 0 0 0
8529 2 8.05871542248413 11.21255286609167 13.910544229036633 0 0 0
8525 2 6.734334413641133 12.190928714490948 16.247814313294604 0 0 0
8532 1 10.685400684346222 12.180856709224678 13.905951684219662 0 0 0
8468 4 13.252309598581045 10.320325054912063 13.967659911457195 0 0 0
8535 5 15.899410484704905 11.356938800305452 13.947254060446914 0 0 0
8538 3 18.732921284322064 12.313542417525301 13.983141467842525 0 0 0
8583 1 0.005629391533104668 14.17005489314627 14.002531366294052 0 0 0
8586 4 2.5833952327509198 15.203256972601533 14.079268370001115 0 0 0
8522 1 5.342405552549679 13.175862577065825 13.938554259984555 0 0 0
8582 4 5.248806142904847 15.929728754753992 13.846160188109005 0 0 0
8589 2 7.996676776262302 14.080116341032383 13.913648635743698 0 0 0
8590 2 9.297755505289398 16.01447792349252 16.21291510251077 0 0 0
8592 2 10.669768748729023 15.015686220557908 13.893217979221488 0 0 0
8528 1 13.352064742274512 13.138633305375615 13.961046546518974 0 0 0
8588 2 13.369575514912947 16.010969145874892 13.869895103890705 0 0 0
8595 4 15.947363841419667 14.138762195650502 13.933228184557892 0 0 0
8598 1 18.601944733602558 15.119639377963031 13.997855881156283 0 0 0
8284 5 1.3145626313472352 1.811898261302151 16.432990714994567 0 0 0
11046 2 2.814644463431234 1.1492379074569192 18.811611589796822 0 0 0
8281 1 3.9160851989326853 -0.002732466107832536 16.31624256661078 0 0 0
8285 1 6.65513451560966 0.8688607135125168 16.32300409065299 0 0 0
8341 2 3.9789485488006084 2.9433213961162417 16.381261898835465 0 0 0
11042 1 5.506080323695094 1.8911952444262512 18.679327923089733 0 0 0
8290 1 9.390826167948699 1.8169907714757254 16.32559752345714 0 0 0
11109 5 8.132290078787188 2.790696689573231 18.62578342233699 0 0 0
8347 5 12.032387273072217 2.8064930753142385 16.40328847730682 0 0 0
11052 3 10.72709940941371 0.9448913573479202 18.596696664102762 0 0 0
11048 4 13.388000832178063 1.7542584600445088 18.660523027806185 0 0 0
8291 3 14.7673081796519 1.0273645001477416 16.460446397672815 0 0 0
11055 3 16.16482491905666 -0.0316830291929458 18.66883666953683 0 0 0
11115 2 16.10779360470593 2.7252760436273356 18.654071941492035 0 0 0
8296 3 17.50646291650974 1.8106763819820038 16.399946872383325 0 0 0
11058 2 18.89523847544012 0.9853319199096202 18.71319859660161 0 0 0
11106 3 2.4871338078644643 3.9220489545985893 18.7381024857342 0 0 0
8401 3 3.9914526532829737 5.6793440611753905 16.32166430904448 0 0 0
11102 4 5.161107564373448 4.611279192021868 18.7394893755273 0 0 0
8345 2 6.66602538020799 3.7805944544422956 16.299836152622134 0 0 0
8350 2 9.349521663336294 4.71423873278576 16.328457489198666 0 0 0
11169 3 7.920046712075082 5.662084664331289 18.62668015999346 0 0 0
8407 1 12.011428341056977 5.640764018331793 16.32696055544358 0 0 0
11112 4 10.744167449180711 3.821838287046444 18.67690905022688 0 0 0
11108 3 13.386071167102141 4.600649863080185 18.639563211678553 0 0 0
8351 4 14.689869587842724 3.725048381413595 16.31044886401536 0 0 0
11175 5 16.06884464795334 5.61805933888691 18.682905636353187 0 0 0
8356 2 17.486292707626507 4.631622255550177 16.38179949140729 0 0 0
11118 2 18.856135611674198 3.71994739192419 18.71298297711198 0 0 0
11223 3 -0.039326256422694036 8.562130319938289 18.622846695915992 0 0 0
11166 3 2.5899937310915737 6.650625877311687 18.683298748362034 0 0 0
11226 3 2.7009054091109626 9.404553167919687 18.654803589178407 0 0 0
8405 1 6.649226679296643 6.521173477405908 16.32441398977939 0 0 0
11162 2 5.210224634411726 7.473570465499565 18.595098550289162 0 0 0
8465 2 6.653085709485152 9.31857392526725 16.27537919404813 0 0 0
8410 3 9.244216691597154 7.5005823240881435 16.332236432568784 0 0 0
11229 2 7.91789440307227 8.421883162657489 18.637181994279928 0 0 0
8467 5 11.975028697316407 8.418070399852196 16.268213282497022 0 0 0
11172 4 10.664886910990088 6.574842801706566 18.641024174788544 0 0 0
11232 5 10.605075150490539 9.387357800427775 18.67548646452355 0 0 0
11168 3 13.374740386216727 7.456325526370627 18.718246573927917 0 0 0
8411 3 14.6643807684571 6.513976409219786 16.379869586788764 0 0 0
8471 5 14.733367326921513 9.411666512939593 16.319629848619975 0 0 0
11235 3 16.196192824414446 8.47739322259729 18.68419933452682 0 0 0
8416 3 17.482422417342402 7.515660433745117 16.3873598196015 0 0 0
11178 2 18.82211954327218 6.570551839575739 18.69979826824972 0 0 0
11238 1 18.749451304674675 9.354210897857133 18.65439081516488 0 0 0
11283 1 -0.023656419863265995 11.366682894547202 18.615570469019097 0 0 0
11286 3 2.5988166004777606 12.284127685466267 18.74815580453769 0 0 0
8521 5 4.026968401458328 11.294464431313635 16.34976272404955 0 0 0
11222 2 5.281601935230833 10.324935507689675 18.690956903013404 0 0 0
8470 4 9.307423679787071 10.277038630854197 16.299100546253285 0 0 0
11289 2 7.9720687282703535 11.276498081257609 18.651187498915824 0 0 0
8527 2 11.939779569384058 11.3333767649 16.338428493520944 0 0 0
11292 3 10.577022293496569 12.257102121752016 18.63151367529925 0 0 0
11228 2 13.297947159884592 10.361268642616462 18.673786173919687 0 0 0
8531 1 14.660772218802526 12.249137662147175 16.346923075329016 0 0 0
11295 2 16.061943535904017 11.288681592385446 18.697550202558958 0 0 0
8476 3 17.44113516651051 10.372591479581198 16.388260477096892 0 0 0
11298 2 18.801531514310003 12.183400423348843 18.672341744246097 0 0 0
8533 3 20.104384924389862 11.218670710158595 16.30556430664722 0 0 0
8524 3 1.2706423792380044 13.343946245722844 16.36070776062596 0 0 0
8584 1 1.1858483053252515 16.204594571473212 16.334796918778814 0 0 0
11346 2 2.615741525947451 15.160009137044955 18.540798850187596 0 0 0
8581 1 3.999733570577227 14.165455219160648 16.311367012861933 0 0 0
8585 5 6.5899235056842755 15.101917885884273 16.26576045339812 0 0 0
11282 5 5.281254894097771 13.235451098490133 18.615943610796492 0 0 0
11342 4 5.2987761413634304 16.136965544194997 18.657233510456855 0 0 0
8530 1 9.389929033579385 13.162425748745857 16.304211766924645 0 0 0
11349 1 7.965921399413829 14.152981154194634 18.58931636325329 0 0 0
8587 4 11.984176030098972 14.147165622860852 16.27628439855314 0 0 0
11352 5 10.605403134270107 15.087244493142501 18.608069718065522 0 0 0
11288 3 13.271084158017471 13.137809124649843 18.646950965492774 0 0 0
11348 3 13.25358705179294 16.10737458359735 18.58903499604282 0 0 0
8591 5 14.64361111824746 15.027845269183233 16.275629672797628 0 0 0
11355 3 15.983238165381296 14.048238128936022 18.64912321914745 0 0 0
8536 2 17.376538689919446 13.19239654220337 16.298991131524556 0 0 0
8596 1 17.275626429947447 16.13258362706284 16.3769146320697 0 0 0
11358 5 18.646840069590944 15.10203066890374 18.661221575726362 0 0 0
11044 2 1.2890848859007735 2.0546699689315324 20.941043586159243 0 0 0
11041 3 4.105440775610801 -0.011496400894585245 21.076476126685534 0 0 0
11101 3 4.141859087514465 2.81613608521468 20.907913345171085 0 0 0
11045 1 6.744162393026663 0.9349972998494275 20.905416917119766 0 0 0
11050 4 9.519733566178441 1.9157471762615992 20.906934745070327 0 0 0
11047 5 12.12434853181918 -0.0023445710995238255 20.925289117263542 0 0 0
11107 3 12.134339324713766 2.879842114767335 20.930038463155018 0 0 0
11051 5 14.864202404885825 0.9444503008561849 21.001511550925713 0 0 0
11053 2 20.083251276372483 -0.02605831280371239 21.05503976168066 0 0 0
11056 3 17.604053007566865 1.9310741681014842 21.016831816647922 0 0 0
11104 1 1.146011734240654 4.876454531368682 21.018080589615632 0 0 0
11161 4 3.851590831872656 5.635457423580897 20.87243355740416 0 0 0
11105 1 6.752721669354573 3.8255718680409747 20.837472949706967 0 0 0
11110 5 9.456282284543795 4.738245112509291 20.996449037926222 0 0 0
11167 1 12.180778239277227 5.6602354990351085 20.91391727181899 0 0 0
11111 1 14.733526777506896 3.7487129994423185 20.942427021160952 0 0 0
11116 2 17.49892053778878 4.702100172496884 21.03640729439727 0 0 0
11164 4 1.342432897964955 7.574788935823467 20.90474260804827 0 0 0
11165 2 6.577675273820946 6.648731407256357 20.993243061229933 0 0 0
11221 4 3.892691808681655 8.469492668279322 20.87427498395598 0 0 0
11225 3 6.576152566966699 9.45558434666223 20.889832165035298 0 0 0
11170 1 9.402724530322393 7.53299752154261 20.893314879514605 0 0 0
11227 3 12.055601600314816 8.471180949483568 21.030636672875975 0 0 0
11171 1 14.815419817543534 6.726131087938212 20.99813580398694 0 0 0
11231 5 14.820647200811552 9.56398662678944 20.948758795339476 0 0 0
11176 3 17.579504963732006 7.587660097956627 20.976421772327193 0 0 0
11224 1 1.3586200113861147 10.428602872903788 20.809423326455946 0 0 0
11281 4 3.9866349845062237 11.359532099517535 20.93329327684545 0 0 0
11285 4 6.57000073607061 12.192926181940114 20.97660159078437 0 0 0
11230 2 9.2461820491419 10.412894614315013 20.988415222226134 0 0 0
11287 2 11.959914866095547 11.364904040247572 20.95228465823183 0 0 0
11291 4 14.67954092018403 12.324400309208084 21.01741675833545 0 0 0
11236 4 17.537776666592936 10.323932756385314 21.039182800050465 0 0 0
11296 1 17.37746589293103 13.043574103354992 20.958124495715786 0 0 0
11284 4 1.308044037629914 13.256267921329842 20.910997863355178 0 0 0
11344 4 1.3311993140701066 16.063912647622608 20.835558002113306 0 0 0
11341 3 3.900375224167503 14.162736664175405 20.863239882408777 0 0 0
11345 2 6.618364484771487 15.037828892744306 20.9426815166407 0 0 0
11290 2 9.231299144126622 13.287548733333207 20.993596520383818 0 0 0
11350 3 9.192426947647819 16.091134808955257 20.982032919908107 0 0 0
11347 4 11.916258468523587 14.20063253156193 20.888288195313006 0 0 0
11351 5 14.531620888705117 15.117736462904848 20.903657676870196 0 0 0
11353 3 20.104879572203576 13.973818130474273 20.933576269411585 0 0 0
11356 1 17.22186148218287 16.096955127190757 20.897425560936707 0 0 0
13804 5 1.3163827980198914 1.6159305193866869 25.724804389687844 0 0 0
13806 2 2.601398961900543 0.8486663244668413 23.279628096166675 0 0 0
13801 3 3.946603034398432 -0.05655899075560064 25.6655080759458 0 0 0
13802 2 5.3808090220297204 1.8005241090817616 23.251098209714417 0 0 0
13861 1 4.023591789374153 2.703192958815599 25.671484434410623 0 0 0
13805 2 6.743049172133757 0.8618033318120972 25.695016700745295 0 0 0
13810 1 9.395987983998852 1.8338505056379817 25.594663139907745 0 0 0
13869 1 8.164232358331372 2.682551152717571 23.23846552742012 0 0 0
13807 5 12.03237059370074 -0.011769607131606153 25.613397093659344 0 0 0
13812 3 10.67127729533524 1.0144599875399098 23.26173422682989 0 0 0
13867 1 12.16887713624386 2.888915810396016 25.533477698120468 0 0 0
13808 3 13.432810704552212 1.9383371791923036 23.327005043954422 0 0 0
13811 1 14.749946789579525 0.9795722986049777 25.550309672136997 0 0 0
13815 1 16.109169350079206 -0.03455880058652991 23.28987818551711 0 0 0
13875 1 16.115417213750636 2.8650560344594194 23.280901303859093 0 0 0
13816 5 17.4342795178748 1.930395298577399 25.598441791516883 0 0 0
13818 4 18.87044681854069 0.9332076561822691 23.322919099662087 0 0 0
13864 2 1.1954601401618052 4.570595409191733 25.649814548216643 0 0 0
13866 5 2.635110161945859 3.7470796564358233 23.26246704733114 0 0 0
13923 3 -0.033292439623049716 5.615276211147926 23.376136090276006 0 0 0
13862 5 5.387343065340672 4.771696901781967 23.129313011638317 0 0 0
13921 1 4.002613297291948 5.628844493137552 25.5122095812978 0 0 0
13865 5 6.783315267453565 3.728119941553977 25.55714508127069 0 0 0
13870 3 9.538462563732118 4.615229086397355 25.61021293535117 0 0 0
13929 1 8.117905638126581 5.612498751953432 23.42862075397114 0 0 0
13872 1 10.91472973743065 3.750833202364832 23.27328207542585 0 0 0
13927 4 12.15347357022845 5.630771419942558 25.587001987114444 0 0 0
13868 4 13.59454745127911 4.7579176011908855 23.36171377270615 0 0 0
13871 4 14.873232966988915 3.815451687875829 25.652133219894857 0 0 0
13935 1 16.249612917832316 5.739761129481916 23.391507493144346 0 0 0
13876 4 17.498226724786715 4.745930435676018 25.677151806555624 0 0 0
13878 2 18.80387042288452 3.7880637213526502 23.313602795945037 0 0 0
13924 2 1.2259311917405595 7.496929773311766 25.623443741047243 0 0 0
13926 4 2.616766721990773 6.57934575796329 23.200781009903746 0 0 0
13986 2 2.64865701597171 9.413719196666493 23.106560069140293 0 0 0
13922 3 5.0731760954022596 7.624306672761136 23.12494256808656 0 0 0