 # Bcc Nb oriented X=[11-2], Y=[111], Z=[1-10].
  
       38640  atoms
           5  atom types
 
      0.000000000000      80.694651200000  xlo xhi
      0.000000000000     131.237390650000  ylo yhi
      0.000000000000      65.224710030000  zlo zhi
 
Masses
 
            1   92.90638000             # Nb
            2   180.94788000            # Ta
            3   91.22400000             # Zr
            4   47.86700000             # Ti
            5   50.94150000             # V
 
Atoms # atomic
 
         1    1        4.034732560000       0.000000000000       2.329454209177
         2    2        5.379643682316       1.901990693343       0.000000000000
         3    1        0.000000000000       0.000000000000       0.000000000000
         4    2        1.344911122316       1.901990693343       2.329454209177
         5    3        6.724553997684       0.950996002858       2.329454209177
         6    4        2.689821437684       0.950996002858       0.000000000000
         7    3       12.104197680000       0.000000000000       2.329454209177
         8    4       13.449108802316       1.901990693343       0.000000000000
         9    4        8.069465120000       0.000000000000       0.000000000000
        10    3        9.414376242316       1.901990693343       2.329454209177
        11    4       14.794019117684       0.950996002858       2.329454209177
        12    2       10.759286557684       0.950996002858       0.000000000000
        13    5       20.173662800000       0.000000000000       2.329454209177
        14    2       21.518573922316       1.901990693343       0.000000000000
        15    3       16.138930240000       0.000000000000       0.000000000000
        16    1       17.483841362316       1.901990693343       2.329454209177
        17    1       22.863484237684       0.950996002858       2.329454209177
        18    1       18.828751677684       0.950996002858       0.000000000000
        19    1       28.243127920000       0.000000000000       2.329454209177
        20    3       29.588039042316       1.901990693343       0.000000000000
        21    2       24.208395360000       0.000000000000       0.000000000000
        22    5       25.553306482316       1.901990693343       2.329454209177
        23    2       30.932949357684       0.950996002858       2.329454209177
        24    5       26.898216797684       0.950996002858       0.000000000000
        25    1       36.312593040000       0.000000000000       2.329454209177
        26    5       37.657504162316       1.901990693343       0.000000000000
        27    5       32.277860480000       0.000000000000       0.000000000000
        28    5       33.622771602316       1.901990693343       2.329454209177
        29    5       39.002414477684       0.950996002858       2.329454209177
        30    5       34.967681917684       0.950996002858       0.000000000000
        31    5       44.382058160000       0.000000000000       2.329454209177
        32    4       45.726969282316       1.901990693343       0.000000000000
        33    5       40.347325600000       0.000000000000       0.000000000000
        34    5       41.692236722315       1.901990693343       2.329454209177
        35    4       47.071879597684       0.950996002858       2.329454209177
        36    5       43.037147037684       0.950996002858       0.000000000000
        37    4       52.451523280000       0.000000000000       2.329454209177
        38    4       53.796434402316       1.901990693343       0.000000000000
        39    1       48.416790720000       0.000000000000       0.000000000000
        40    4       49.761701842315       1.901990693343       2.329454209177
        41    4       55.141344717684       0.950996002858       2.329454209177
        42    2       51.106612157684       0.950996002858       0.000000000000
        43    4       60.520988400000       0.000000000000       2.329454209177
        44    4       61.865899522316       1.901990693343       0.000000000000
        45    3       56.486255840000       0.000000000000       0.000000000000
        46    4       57.831166962315       1.901990693343       2.329454209177
        47    4       63.210809837684       0.950996002858       2.329454209177
        48    4       59.176077277684       0.950996002858       0.000000000000
        49    5       68.590453520000       0.000000000000       2.329454209177
        50    5       69.935364642315       1.901990693343       0.000000000000
        51    2       64.555720960000       0.000000000000       0.000000000000
        52    4       65.900632082315       1.901990693343       2.329454209177
        53    4       71.280274957684       0.950996002858       2.329454209177
        54    5       67.245542397684       0.950996002858       0.000000000000
        55    5       76.659918640000       0.000000000000       2.329454209177
        56    4       78.004829762315       1.901990693343       0.000000000000
        57    2       72.625186080000       0.000000000000       0.000000000000
        58    4       73.970097202316       1.901990693343       2.329454209177
        59    4       79.349740077684       0.950996002858       2.329454209177
        60    5       75.315007517684       0.950996002858       0.000000000000
        61    5        4.034732560000       2.852986696201       2.329454209177
        62    4        5.379643682316       4.754977389544       0.000000000000
        63    5        0.000000000000       2.852986696201       0.000000000000
        64    5        1.344911122316       4.754977389544       2.329454209177
        65    1        6.724553997684       3.803982699059       2.329454209177
        66    4        2.689821437684       3.803982699059       0.000000000000
        67    2       12.104197680000       2.852986696201       2.329454209177
        68    1       13.449108802316       4.754977389544       0.000000000000
        69    3        8.069465120000       2.852986696201       0.000000000000
        70    4        9.414376242316       4.754977389544       2.329454209177
        71    2       14.794019117684       3.803982699059       2.329454209177
        72    5       10.759286557684       3.803982699059       0.000000000000
        73    3       20.173662800000       2.852986696201       2.329454209177
        74    4       21.518573922316       4.754977389544       0.000000000000
        75    1       16.138930240000       2.852986696201       0.000000000000
        76    3       17.483841362316       4.754977389544       2.329454209177
        77    3       22.863484237684       3.803982699059       2.329454209177
        78    4       18.828751677684       3.803982699059       0.000000000000
        79    3       28.243127920000       2.852986696201       2.329454209177
        80    2       29.588039042316       4.754977389544       0.000000000000
        81    2       24.208395360000       2.852986696201       0.000000000000
        82    5       25.553306482316       4.754977389544       2.329454209177
        83    2       30.932949357684       3.803982699059       2.329454209177
        84    1       26.898216797684       3.803982699059       0.000000000000
        85    3       36.312593040000       2.852986696201       2.329454209177
        86    5       37.657504162316       4.754977389544       0.000000000000
        87    2       32.277860480000       2.852986696201       0.000000000000
        88    2       33.622771602316       4.754977389544       2.329454209177
        89    1       39.002414477684       3.803982699059       2.329454209177
        90    2       34.967681917684       3.803982699059       0.000000000000
        91    3       44.382058160000       2.852986696201       2.329454209177
        92    3       45.726969282316       4.754977389544       0.000000000000
        93    1       40.347325600000       2.852986696201       0.000000000000
        94    3       41.692236722315       4.754977389544       2.329454209177
        95    3       47.071879597684       3.803982699059       2.329454209177
        96    2       43.037147037684       3.803982699059       0.000000000000
        97    3       52.451523280000       2.852986696201       2.329454209177
        98    3       53.796434402316       4.754977389544       0.000000000000
        99    5       48.416790720000       2.852986696201       0.000000000000
       100    3       49.761701842315       4.754977389544       2.329454209177
       101    4       55.141344717684       3.803982699059       2.329454209177
       102    3       51.106612157684       3.803982699059       0.000000000000
       103    4       60.520988400000       2.852986696201       2.329454209177
       104    3       61.865899522316       4.754977389544       0.000000000000
       105    4       56.486255840000       2.852986696201       0.000000000000
       106    3       57.831166962315       4.754977389544       2.329454209177
       107    3       63.210809837684       3.803982699059       2.329454209177
       108    3       59.176077277684       3.803982699059       0.000000000000
       109    5       68.590453520000       2.852986696201       2.329454209177
       110    5       69.935364642315       4.754977389544       0.000000000000
       111    5       64.555720960000       2.852986696201       0.000000000000
       112    5       65.900632082315       4.754977389544       2.329454209177
       113    1       71.280274957684       3.803982699059       2.329454209177
       114    4       67.245542397684       3.803982699059       0.000000000000
       115    2       76.659918640000       2.852986696201       2.329454209177
       116    2       78.004829762315       4.754977389544       0.000000000000
       117    2       72.625186080000       2.852986696201       0.000000000000
       118    2       73.970097202316       4.754977389544       2.329454209177
       119    2       79.349740077684       3.803982699059       2.329454209177
       120    4       75.315007517684       3.803982699059       0.000000000000
       121    3        4.034732560000       5.705973392402       2.329454209177
       122    1        5.379643682316       7.607964085745       0.000000000000
       123    1        0.000000000000       5.705973392402       0.000000000000
       124    1        1.344911122316       7.607964085745       2.329454209177
       125    4        6.724553997684       6.656969395261       2.329454209177
       126    5        2.689821437684       6.656969395261       0.000000000000
       127    2       12.104197680000       5.705973392402       2.329454209177
       128    5       13.449108802316       7.607964085745       0.000000000000
       129    1        8.069465120000       5.705973392402       0.000000000000
       130    5        9.414376242316       7.607964085745       2.329454209177
       131    1       14.794019117684       6.656969395261       2.329454209177
       132    4       10.759286557684       6.656969395261       0.000000000000
       133    4       20.173662800000       5.705973392402       2.329454209177
       134    4       21.518573922316       7.607964085745       0.000000000000
       135    3       16.138930240000       5.705973392402       0.000000000000
       136    4       17.483841362316       7.607964085745       2.329454209177
       137    2       22.863484237684       6.656969395261       2.329454209177
       138    1       18.828751677684       6.656969395261       0.000000000000
       139    2       28.243127920000       5.705973392402       2.329454209177
       140    3       29.588039042316       7.607964085745       0.000000000000
       141    2       24.208395360000       5.705973392402       0.000000000000
       142    3       25.553306482316       7.607964085745       2.329454209177
       143    4       30.932949357684       6.656969395261       2.329454209177
       144    2       26.898216797684       6.656969395261       0.000000000000
       145    2       36.312593040000       5.705973392402       2.329454209177
       146    2       37.657504162316       7.607964085745       0.000000000000
       147    4       32.277860480000       5.705973392402       0.000000000000
       148    1       33.622771602316       7.607964085745       2.329454209177
       149    2       39.002414477684       6.656969395261       2.329454209177
       150    4       34.967681917684       6.656969395261       0.000000000000
       151    3       44.382058160000       5.705973392402       2.329454209177
       152    2       45.726969282316       7.607964085745       0.000000000000
       153    4       40.347325600000       5.705973392402       0.000000000000
       154    5       41.692236722315       7.607964085745       2.329454209177
       155    4       47.071879597684       6.656969395261       2.329454209177
       156    2       43.037147037684       6.656969395261       0.000000000000
       157    5       52.451523280000       5.705973392402       2.329454209177
       158    2       53.796434402316       7.607964085745       0.000000000000
       159    5       48.416790720000       5.705973392402       0.000000000000
       160    3       49.761701842315       7.607964085745       2.329454209177
       161    5       55.141344717684       6.656969395261       2.329454209177
       162    4       51.106612157684       6.656969395261       0.000000000000
       163    1       60.520988400000       5.705973392402       2.329454209177
       164    4       61.865899522316       7.607964085745       0.000000000000
       165    3       56.486255840000       5.705973392402       0.000000000000
       166    1       57.831166962315       7.607964085745       2.329454209177
       167    1       63.210809837684       6.656969395261       2.329454209177
       168    5       59.176077277684       6.656969395261       0.000000000000
       169    1       68.590453520000       5.705973392402       2.329454209177
       170    1       69.935364642315       7.607964085745       0.000000000000
       171    1       64.555720960000       5.705973392402       0.000000000000
       172    4       65.900632082315       7.607964085745       2.329454209177
       173    4       71.280274957684       6.656969395261       2.329454209177
       174    5       67.245542397684       6.656969395261       0.000000000000
       175    5       76.659918640000       5.705973392402       2.329454209177
       176    3       78.004829762315       7.607964085745       0.000000000000
       177    2       72.625186080000       5.705973392402       0.000000000000
       178    4       73.970097202316       7.607964085745       2.329454209177
       179    1       79.349740077684       6.656969395261       2.329454209177
       180    2       75.315007517684       6.656969395261       0.000000000000
       181    2        4.034732560000       8.558960088603       2.329454209177
       182    3        5.379643682316      10.460950781946       0.000000000000
       183    4        0.000000000000       8.558960088603       0.000000000000
       184    4        1.344911122316      10.460950781946       2.329454209177
       185    5        6.724553997684       9.509956091462       2.329454209177
       186    3        2.689821437684       9.509956091462       0.000000000000
       187    1       12.104197680000       8.558960088603       2.329454209177
       188    1       13.449108802316      10.460950781946       0.000000000000
       189    2        8.069465120000       8.558960088603       0.000000000000
       190    5        9.414376242316      10.460950781946       2.329454209177
       191    5       14.794019117684       9.509956091462       2.329454209177
       192    1       10.759286557684       9.509956091462       0.000000000000
       193    2       20.173662800000       8.558960088603       2.329454209177
       194    3       21.518573922316      10.460950781946       0.000000000000
       195    1       16.138930240000       8.558960088603       0.000000000000
       196    5       17.483841362316      10.460950781946       2.329454209177
       197    3       22.863484237684       9.509956091462       2.329454209177
       198    3       18.828751677684       9.509956091462       0.000000000000
       199    5       28.243127920000       8.558960088603       2.329454209177
       200    3       29.588039042316      10.460950781946       0.000000000000
       201    3       24.208395360000       8.558960088603       0.000000000000
       202    3       25.553306482316      10.460950781946       2.329454209177
       203    4       30.932949357684       9.509956091462       2.329454209177
       204    2       26.898216797684       9.509956091462       0.000000000000
       205    2       36.312593040000       8.558960088603       2.329454209177
       206    4       37.657504162316      10.460950781946       0.000000000000
       207    4       32.277860480000       8.558960088603       0.000000000000
       208    4       33.622771602316      10.460950781946       2.329454209177
       209    4       39.002414477684       9.509956091462       2.329454209177
       210    1       34.967681917684       9.509956091462       0.000000000000
       211    1       44.382058160000       8.558960088603       2.329454209177
       212    4       45.726969282316      10.460950781946       0.000000000000
       213    5       40.347325600000       8.558960088603       0.000000000000
       214    5       41.692236722315      10.460950781946       2.329454209177
       215    1       47.071879597684       9.509956091462       2.329454209177
       216    3       43.037147037684       9.509956091462       0.000000000000
       217    3       52.451523280000       8.558960088603       2.329454209177
       218    4       53.796434402316      10.460950781946       0.000000000000
       219    4       48.416790720000       8.558960088603       0.000000000000
       220    2       49.761701842315      10.460950781946       2.329454209177
       221    2       55.141344717684       9.509956091462       2.329454209177
       222    3       51.106612157684       9.509956091462       0.000000000000
       223    5       60.520988400000       8.558960088603       2.329454209177
       224    4       61.865899522316      10.460950781946       0.000000000000
       225    5       56.486255840000       8.558960088603       0.000000000000
       226    4       57.831166962315      10.460950781946       2.329454209177
       227    3       63.210809837684       9.509956091462       2.329454209177
       228    4       59.176077277684       9.509956091462       0.000000000000
       229    2       68.590453520000       8.558960088603       2.329454209177
       230    3       69.935364642315      10.460950781946       0.000000000000
       231    4       64.555720960000       8.558960088603       0.000000000000
       232    4       65.900632082315      10.460950781946       2.329454209177
       233    2       71.280274957684       9.509956091462       2.329454209177
       234    4       67.245542397684       9.509956091462       0.000000000000
       235    2       76.659918640000       8.558960088603       2.329454209177
       236    2       78.004829762315      10.460950781946       0.000000000000
       237    4       72.625186080000       8.558960088603       0.000000000000
       238    4       73.970097202316      10.460950781946       2.329454209177
       239    3       79.349740077684       9.509956091462       2.329454209177
       240    5       75.315007517684       9.509956091462       0.000000000000
       241    4        4.034732560000      11.411946784805       2.329454209177
       242    2        5.379643682316      13.313938790521       0.000000000000
       243    1        0.000000000000      11.411946784805       0.000000000000
       244    1        1.344911122316      13.313938790521       2.329454209177
       245    1        6.724553997684      12.362942787663       2.329454209177
       246    4        2.689821437684      12.362942787663       0.000000000000
       247    4       12.104197680000      11.411946784805       2.329454209177
       248    4       13.449108802316      13.313938790521       0.000000000000
       249    2        8.069465120000      11.411946784805       0.000000000000
       250    4        9.414376242316      13.313938790521       2.329454209177
       251    4       14.794019117684      12.362942787663       2.329454209177
       252    1       10.759286557684      12.362942787663       0.000000000000
       253    4       20.173662800000      11.411946784805       2.329454209177
       254    3       21.518573922316      13.313938790521       0.000000000000
       255    1       16.138930240000      11.411946784805       0.000000000000
       256    1       17.483841362316      13.313938790521       2.329454209177
       257    1       22.863484237684      12.362942787663       2.329454209177
       258    1       18.828751677684      12.362942787663       0.000000000000
       259    5       28.243127920000      11.411946784805       2.329454209177
       260    2       29.588039042316      13.313938790521       0.000000000000
       261    5       24.208395360000      11.411946784805       0.000000000000
       262    4       25.553306482316      13.313938790521       2.329454209177
       263    5       30.932949357684      12.362942787663       2.329454209177
       264    5       26.898216797684      12.362942787663       0.000000000000
       265    5       36.312593040000      11.411946784805       2.329454209177
       266    5       37.657504162316      13.313938790521       0.000000000000
       267    3       32.277860480000      11.411946784805       0.000000000000
       268    5       33.622771602316      13.313938790521       2.329454209177
       269    3       39.002414477684      12.362942787663       2.329454209177
       270    1       34.967681917684      12.362942787663       0.000000000000
       271    1       44.382058160000      11.411946784805       2.329454209177
       272    3       45.726969282316      13.313938790521       0.000000000000
       273    5       40.347325600000      11.411946784805       0.000000000000
       274    4       41.692236722315      13.313938790521       2.329454209177
       275    4       47.071879597684      12.362942787663       2.329454209177
       276    2       43.037147037684      12.362942787663       0.000000000000
       277    4       52.451523280000      11.411946784805       2.329454209177
       278    4       53.796434402316      13.313938790521       0.000000000000
       279    4       48.416790720000      11.411946784805       0.000000000000
       280    2       49.761701842315      13.313938790521       2.329454209177
       281    5       55.141344717684      12.362942787663       2.329454209177
       282    1       51.106612157684      12.362942787663       0.000000000000
       283    3       60.520988400000      11.411946784805       2.329454209177
       284    4       61.865899522316      13.313938790521       0.000000000000
       285    1       56.486255840000      11.411946784805       0.000000000000
       286    2       57.831166962315      13.313938790521       2.329454209177
       287    1       63.210809837684      12.362942787663       2.329454209177
       288    5       59.176077277684      12.362942787663       0.000000000000
       289    4       68.590453520000      11.411946784805       2.329454209177
       290    5       69.935364642315      13.313938790521       0.000000000000
       291    2       64.555720960000      11.411946784805       0.000000000000
       292    2       65.900632082315      13.313938790521       2.329454209177
       293    2       71.280274957684      12.362942787663       2.329454209177
       294    2       67.245542397684      12.362942787663       0.000000000000
       295    3       76.659918640000      11.411946784805       2.329454209177
       296    3       78.004829762315      13.313938790521       0.000000000000
       297    2       72.625186080000      11.411946784805       0.000000000000
       298    4       73.970097202316      13.313938790521       2.329454209177
       299    4       79.349740077684      12.362942787663       2.329454209177
       300    4       75.315007517684      12.362942787663       0.000000000000
       301    2        4.034732560000      14.264933481006       2.329454209177
       302    5        5.379643682316      16.166925486722       0.000000000000
       303    4        0.000000000000      14.264933481006       0.000000000000
       304    3        1.344911122316      16.166925486722       2.329454209177
       305    5        6.724553997684      15.215929483864       2.329454209177
       306    5        2.689821437684      15.215929483864       0.000000000000
       307    2       12.104197680000      14.264933481006       2.329454209177
       308    3       13.449108802316      16.166925486722       0.000000000000
       309    1        8.069465120000      14.264933481006       0.000000000000
       310    1        9.414376242316      16.166925486722       2.329454209177
       311    4       14.794019117684      15.215929483864       2.329454209177
       312    3       10.759286557684      15.215929483864       0.000000000000
       313    3       20.173662800000      14.264933481006       2.329454209177
       314    5       21.518573922316      16.166925486722       0.000000000000
       315    5       16.138930240000      14.264933481006       0.000000000000
       316    1       17.483841362316      16.166925486722       2.329454209177
       317    4       22.863484237684      15.215929483864       2.329454209177
       318    1       18.828751677684      15.215929483864       0.000000000000
       319    2       28.243127920000      14.264933481006       2.329454209177
       320    5       29.588039042316      16.166925486722       0.000000000000
       321    1       24.208395360000      14.264933481006       0.000000000000
       322    3       25.553306482316      16.166925486722       2.329454209177
       323    3       30.932949357684      15.215929483864       2.329454209177
       324    1       26.898216797684      15.215929483864       0.000000000000
       325    3       36.312593040000      14.264933481006       2.329454209177
       326    4       37.657504162316      16.166925486722       0.000000000000
       327    3       32.277860480000      14.264933481006       0.000000000000
       328    2       33.622771602316      16.166925486722       2.329454209177
       329    1       39.002414477684      15.215929483864       2.329454209177
       330    3       34.967681917684      15.215929483864       0.000000000000
       331    4       44.382058160000      14.264933481006       2.329454209177
       332    4       45.726969282316      16.166925486722       0.000000000000
       333    3       40.347325600000      14.264933481006       0.000000000000
       334    4       41.692236722315      16.166925486722       2.329454209177
       335    3       47.071879597684      15.215929483864       2.329454209177
       336    2       43.037147037684      15.215929483864       0.000000000000
       337    3       52.451523280000      14.264933481006       2.329454209177
       338    3       53.796434402316      16.166925486722       0.000000000000
       339    3       48.416790720000      14.264933481006       0.000000000000
       340    2       49.761701842315      16.166925486722       2.329454209177
       341    2       55.141344717684      15.215929483864       2.329454209177
       342    2       51.106612157684      15.215929483864       0.000000000000
       343    1       60.520988400000      14.264933481006       2.329454209177
       344    1       61.865899522316      16.166925486722       0.000000000000
       345    2       56.486255840000      14.264933481006       0.000000000000
       346    5       57.831166962315      16.166925486722       2.329454209177
       347    3       63.210809837684      15.215929483864       2.329454209177
       348    1       59.176077277684      15.215929483864       0.000000000000
       349    4       68.590453520000      14.264933481006       2.329454209177
       350    4       69.935364642315      16.166925486722       0.000000000000
       351    3       64.555720960000      14.264933481006       0.000000000000
       352    4       65.900632082315      16.166925486722       2.329454209177
       353    2       71.280274957684      15.215929483864       2.329454209177
       354    2       67.245542397684      15.215929483864       0.000000000000
       355    5       76.659918640000      14.264933481006       2.329454209177
       356    3       78.004829762315      16.166925486722       0.000000000000
       357    1       72.625186080000      14.264933481006       0.000000000000
       358    4       73.970097202316      16.166925486722       2.329454209177
       359    1       79.349740077684      15.215929483864       2.329454209177
       360    4       75.315007517684      15.215929483864       0.000000000000
       361    4        4.034732560000      17.117920177207       2.329454209177
       362    1        5.379643682316      19.019912182924       0.000000000000
       363    2        0.000000000000      17.117920177207       0.000000000000
       364    5        1.344911122316      19.019912182924       2.329454209177
       365    2        6.724553997684      18.068916180065       2.329454209177
       366    3        2.689821437684      18.068916180065       0.000000000000
       367    3       12.104197680000      17.117920177207       2.329454209177
       368    2       13.449108802316      19.019912182924       0.000000000000