LAMMPS data file via write_data, version 2 Aug 2023, timestep = 50105, units = metal

38640 atoms
5 atom types

-0.05983180045086028 80.64804434045054 xlo xhi
-0.07271634880677663 131.13700095880625 ylo yhi
-0.04454858577273657 65.18322526577192 zlo zhi

Masses

1 92.90600000000001
2 180.948
3 47.88
4 50.942
5 91.22

Atoms # atomic

4 2 1.2381213952388666 1.8730362277445487 2.1269101159844537 0 0 0
5 1 6.526870216064941 0.7273134292972634 2.2506915999935666 0 0 0
61 4 3.8599064055728927 2.8425488252196076 2.298973661088981 0 0 0
10 5 9.293855339802027 1.6445994770981112 2.2314354695047176 0 0 0
67 5 12.103031661443657 2.7477202012091486 2.347618149218417 0 0 0
11 2 14.674504202989635 0.7842169788974156 2.2987195984970654 0 0 0
16 5 17.383512253755747 1.8064267853343656 2.3660976400613905 0 0 0
18 5 18.813741715311128 0.8122572092284345 -0.014402627937929518 0 0 0
64 2 1.28749457335582 4.741410515171916 2.2428271755287885 0 0 0
66 3 2.477066381886451 3.6309957243539936 -0.009401076110932995 0 0 0
65 2 6.535252145766505 3.657463523333796 2.3112022304678517 0 0 0
121 4 4.0091251628571065 5.643498263696349 2.26929232422173 0 0 0
62 5 5.1932666436319295 4.630926863069399 -0.03731286605789075 0 0 0
70 5 9.2464580838014 4.712433968728187 2.286391337440782 0 0 0
127 3 11.98619032767112 5.719268738067421 2.3224980847816346 0 0 0
68 2 13.44885781813654 4.597425942241655 0.03714970917514214 0 0 0
71 4 14.776659747193822 3.711469855033508 2.33607787507302 0 0 0
135 3 16.11712459212167 5.505108885308603 0.06173447494565583 0 0 0
76 1 17.460211252523372 4.695715614405413 2.332474205698333 0 0 0
78 1 18.81382472334625 3.732815180723253 0.006476899879156614 0 0 0
124 3 1.1973720134275196 7.574479240477155 2.300212027903844 0 0 0
125 1 6.60133952359411 6.6221122381112325 2.232954349544883 0 0 0
181 5 3.9586826527342787 8.46385795206545 2.2549006522196167 0 0 0
185 4 6.604242774717142 9.431017514115181 2.078489175025675 0 0 0
130 1 9.238487373400789 7.563730756923046 2.3317770274731275 0 0 0
132 2 10.550183828765647 6.570164604760784 -0.00602660275522828 0 0 0
187 4 11.963448226767705 8.454998052964243 2.2796358138459603 0 0 0
128 5 13.297861476379905 7.599141645193409 0.02181279509256024 0 0 0
131 3 14.679571085233135 6.586556594341718 2.305726128896436 0 0 0
191 1 14.756408087493163 9.479936105724708 2.1788069752956085 0 0 0
136 5 17.496760737952304 7.628880240709165 2.3707635993990412 0 0 0
184 1 1.2381516447486607 10.403400506113668 2.3032635872489116 0 0 0
241 2 4.059882389961877 11.351835283800465 2.3026551364717127 0 0 0
245 3 6.639230118871132 12.305262566158417 2.222181750502843 0 0 0
190 1 9.302945154387816 10.485765208207052 2.2850534010608277 0 0 0
247 5 12.035523943775583 11.316566142121212 2.1528198055570087 0 0 0
251 3 14.776390726070748 12.270710397275964 2.1186850999971174 0 0 0
196 4 17.41559971743095 10.507157359164228 2.201162537591242 0 0 0
253 3 20.090003828389584 11.370571531190702 2.2286275625342657 0 0 0
244 3 1.3239128934523503 13.184521714369712 2.1817136444766265 0 0 0
304 2 1.371708851916596 15.983849510577947 2.238865162307545 0 0 0
301 2 4.004724822815394 14.187527456822277 2.2655372396266564 0 0 0
305 1 6.741340584705154 15.10726449148801 2.1562546262393365 0 0 0
250 3 9.339171952905435 13.263687664054427 2.205938109655655 0 0 0
310 5 9.421029266770596 16.148220161207256 2.0381457206964937 0 0 0
307 2 12.061776827434965 14.246132069453495 2.065058986175649 0 0 0
311 3 14.718686794296787 15.181138313260266 2.137710522240801 0 0 0
256 5 17.448680236951105 13.321148208941782 2.2365628621624696 0 0 0
316 1 17.45406932723653 16.134570277841526 2.22457186166082 0 0 0
2766 5 2.606741664831636 0.9594641181148099 4.495556714619617 0 0 0
2823 2 -0.019697013395237786 2.7961375003935536 4.52260801829264 0 0 0
2762 3 5.235223479421521 1.8665064860798897 4.55484796076518 0 0 0
2829 5 7.948158260684057 2.7774393755428046 4.629179452560758 0 0 0
2772 3 10.65697788252033 0.8157199019847318 4.600653775920978 0 0 0
2768 1 13.408398791089022 1.8033630132172005 4.726739484720939 0 0 0
2835 3 16.115806053141945 2.766694758656479 4.699518975778549 0 0 0
2778 2 18.837323550238523 0.8278807414072102 4.691191785593233 0 0 0
2826 4 2.5999110483516756 3.7297591082430617 4.501892871696616 0 0 0
2822 2 5.212733158098175 4.635763153234169 4.636726260106246 0 0 0
2889 3 7.886645113156215 5.706701685510597 4.623902332564933 0 0 0
2832 3 10.610433221766444 3.8282387358047996 4.668037370758989 0 0 0
2828 5 13.37646064953807 4.656407003919564 4.64272145834383 0 0 0
2895 5 16.197310932678047 5.701502763596777 4.652774910251088 0 0 0
2838 4 18.766449933729017 3.7049619668166844 4.682719806540723 0 0 0
2898 1 19.032153973650818 6.46966455566502 4.525477092104012 0 0 0
2886 5 2.584304216170851 6.495095245289126 4.652357972943733 0 0 0
2943 1 0.08000389078286059 8.385406301332765 4.723013784360013 0 0 0
2946 3 2.5691175831798243 9.419559756908999 4.657432016866869 0 0 0
2882 2 5.34525933429637 7.593116665011281 4.636257890576854 0 0 0
2949 3 7.896751148851614 8.538001416734238 4.474463045318692 0 0 0
2892 4 10.564889804543174 6.540221105495046 4.588161582732115 0 0 0
2952 3 10.560873984415892 9.335283723613353 4.5297317474052745 0 0 0
2888 1 13.246945037158183 7.464495014454499 4.451050324992518 0 0 0
2955 1 16.083344342340467 8.610955284294887 4.5723934124117065 0 0 0
2958 1 18.84492351182575 9.506097989991488 4.550680949487466 0 0 0
3003 3 -0.03611922752366429 11.178579686386323 4.594019339047887 0 0 0
3006 3 2.657670070750057 12.20182817402035 4.548653350667957 0 0 0
2942 3 5.260751159108045 10.358548434945327 4.595377149762878 0 0 0
3009 2 7.807336152190322 11.357118704648839 4.520791558388491 0 0 0
3012 3 10.525094670713221 12.225086192868988 4.5805053812002745 0 0 0
2948 5 13.40784544653377 10.292073293680968 4.562728330622583 0 0 0
3015 3 16.124567634062025 11.42365947974739 4.589377589369658 0 0 0
3018 2 18.730550283865472 12.367395079463817 4.516363808659192 0 0 0
3066 5 2.652415409440856 15.11950728331025 4.672634750610247 0 0 0
3063 2 -0.04759527872985168 14.026071848325662 4.542441077568579 0 0 0
3002 3 5.366628964373564 13.204974657874692 4.644964030588739 0 0 0
3062 2 5.388147461645242 16.072995631673027 4.553566956025846 0 0 0
3069 2 8.017731621808142 14.35417395698864 4.708605461351027 0 0 0
3072 5 10.677024543542469 15.153916965529948 4.479844498643923 0 0 0
3008 5 13.36679635597792 13.23296814824247 4.526157971272444 0 0 0
3068 5 13.35597581325282 16.120717715350334 4.507263872075061 0 0 0
3075 4 16.07588205104003 14.191377694163753 4.603866984858745 0 0 0
3078 3 18.784360983153952 15.184728487099726 4.5075225032420585 0 0 0
2764 1 1.3157204970014562 1.802620645803681 6.9295004829608535 0 0 0
5526 2 2.5704669477899453 0.8492573681246974 9.350911859322308 0 0 0
5583 2 0.03739668606523306 2.6973195206986653 9.381382066401189 0 0 0
2765 1 6.5396301062673565 0.8085416341726058 6.870573606266271 0 0 0
2821 3 3.8311511206490607 2.783534853406154 7.00634606230991 0 0 0
5522 2 5.278500184798604 1.8808529617802958 9.345366060374309 0 0 0
2770 2 9.322199913005964 1.775719734284579 6.966497438737201 0 0 0
5589 5 7.9962547856664985 2.8118304910124814 9.450940371787173 0 0 0
2767 5 11.9843069764926 -0.03464284439780742 6.941446600102009 0 0 0
2827 5 11.996504565508065 2.8707192318557326 7.048987305133342 0 0 0
5532 1 10.632618423013378 0.9232250982184321 9.477037503632175 0 0 0
2771 3 14.784215138035808 0.9081279809393265 7.041501379486645 0 0 0
5528 2 13.409063640997832 1.9378156611103132 9.405267097110757 0 0 0
5595 5 16.148291781653825 2.699259793986527 9.353422286193648 0 0 0
2776 3 17.519957734856504 1.7606853474002373 6.9539578114491425 0 0 0
5538 5 18.873275814430958 0.7651793516395473 9.375388157113541 0 0 0
2824 2 1.3188972094671796 4.65777050050009 6.932598580451686 0 0 0
5586 1 2.645658818276266 3.776946438517218 9.409620920162906 0 0 0
5643 2 0.02694214424392982 5.611151442330527 9.34960663231146 0 0 0
2825 5 6.532384117717083 3.751293519936543 7.038530701801517 0 0 0
2881 1 3.9777833803762794 5.587220628374585 7.05924670869997 0 0 0
5582 3 5.198646819733337 4.694730798230969 9.470585763111188 0 0 0
2830 3 9.303808188378799 4.738762978486414 7.037027831872719 0 0 0
5649 2 7.86660307372164 5.654093270781618 9.302029881634246 0 0 0
2887 1 11.911152633467239 5.611751451054435 6.970363494138603 0 0 0
5592 1 10.618965282803755 3.7531747544154594 9.424700822080073 0 0 0
5588 3 13.223179329243537 4.698964656453503 9.388883020872248 0 0 0
2831 3 14.801352735807031 3.772635909884331 7.038099683261328 0 0 0
5655 2 15.969491883183307 5.536409066385431 9.307746912525454 0 0 0
2836 3 17.512767478376965 4.6288501503895985 6.970776659738558 0 0 0
5598 5 19.01719313741543 3.6926984576517796 9.33571892567995 0 0 0
2884 4 1.3376182514538293 7.552155731925498 6.977584021077579 0 0 0
5646 1 2.71068873756981 6.651153368013799 9.431585856237836 0 0 0
5703 2 0.049136163037966404 8.441969279941949 9.221349710329854 0 0 0
5706 4 2.720820089120078 9.416889090364327 9.327912517425512 0 0 0
2885 3 6.569751369455041 6.625925133366616 7.006161713445329 0 0 0
2941 5 3.936331488679977 8.470067358159692 7.039691695895725 0 0 0
5642 3 5.2654185576670605 7.604827900753235 9.427818090331265 0 0 0
2945 3 6.691365698523559 9.487798976863875 6.9352985406513445 0 0 0
2890 2 9.143403299230757 7.565481526511923 6.81587624092644 0 0 0
5709 3 8.071678101153788 8.439458290972636 9.233095502787855 0 0 0
2947 5 11.931957488067614 8.47077960571829 6.86370162223801 0 0 0
5652 2 10.567004143794444 6.643175910228247 9.293477506785983 0 0 0
5712 4 10.610731334888058 9.490892856099837 9.281081424069127 0 0 0
5648 5 13.308122237693896 7.563538403139747 9.290390106784551 0 0 0
2891 1 14.714117722393482 6.536893241429629 6.944596995159001 0 0 0
2951 1 14.623885121732359 9.573295675164927 7.0714731372186925 0 0 0
5715 5 16.133192492040337 8.523229583298463 9.286441031142758 0 0 0
2896 1 17.58316024746465 7.525415472764143 6.908530072071105 0 0 0
5658 5 18.789451054208 6.627955217717548 9.298525355947946 0 0 0
5718 3 18.855567503092622 9.532978692690833 9.254298397882334 0 0 0
2944 4 1.3634873433315373 10.309569885089681 6.992168546677714 0 0 0
5763 4 -0.00015054547267496333 11.244995671640138 9.236000994696408 0 0 0
5766 5 2.6245213070994584 12.08489826129921 9.299801361028303 0 0 0
3001 3 3.999418837121076 11.270467814605047 6.958566445220945 0 0 0
5702 4 5.315067823689269 10.323810366699629 9.247195511167398 0 0 0
3005 1 6.708571127034713 12.296315504802969 6.99212589025307 0 0 0
2950 1 9.346736511578559 10.414943958000542 6.896824498817981 0 0 0
5769 5 8.101235150622797 11.316017403881412 9.349731289561939 0 0 0
3007 5 11.995372451259431 11.455904240255334 6.99685310649928 0 0 0
5772 4 10.719291830267489 12.253557395747263 9.36290293066838 0 0 0
5708 3 13.304038037131125 10.383702588133113 9.418119888864098 0 0 0
3011 1 14.760835730657327 12.408272073063726 6.8874084641814965 0 0 0
5775 1 16.023657952872394 11.360950535857823 9.322448614308897 0 0 0
2956 2 17.47960246743936 10.445416581940917 6.916511867910154 0 0 0
5778 2 18.76419122449295 12.414211215816612 9.28489757215693 0 0 0
3004 5 1.3127104121658384 13.152274868458514 6.92002203365289 0 0 0
3064 2 1.402411704210766 16.109911062938384 7.178294193463147 0 0 0
5826 1 2.6672290499301816 14.954999892026025 9.378027550039393 0 0 0
3061 1 4.064284283176371 14.058129859839537 6.932079153313986 0 0 0
3065 3 6.635679630495093 15.115764363005765 7.084860888815187 0 0 0
5762 5 5.4117514102076125 13.228072868634323 9.310473147332301 0 0 0
5822 4 5.235493834010928 16.045424797741664 9.162209818634171 0 0 0
3010 3 9.340883587117567 13.2219688778972 7.0211687164818875 0 0 0
3070 3 9.286858516193654 16.15782223505264 6.838219788210749 0 0 0
5829 4 8.04907153266435 14.130423823317809 9.209364185129079 0 0 0
3067 4 11.923853122283667 14.27756572230114 6.76510875940225 0 0 0
5832 5 10.669323786531432 15.089516751766693 9.14621120205033 0 0 0
5768 1 13.31274969967854 13.1410591027967 9.241153364474188 0 0 0
5828 1 13.362675219662108 16.02591915162033 9.210419421608867 0 0 0
3071 3 14.673267321038958 15.175632108494101 6.878842322022346 0 0 0
5835 5 16.02367658378425 14.214088562054163 9.250341765823176 0 0 0
3016 4 17.416180484132774 13.30015958724528 6.858356693356601 0 0 0
3076 5 17.391930935393404 16.165552378648613 6.943433234605479 0 0 0
5838 3 18.77976269046739 15.319157429485387 9.275294062535783 0 0 0
3073 5 20.08709260947852 14.329785351482965 6.8623274844356095 0 0 0
5524 4 1.3199686071042767 1.7357580228058045 11.734111592946222 0 0 0
5525 3 6.5457655060420175 0.9178449223195283 11.679114176100647 0 0 0
5581 2 3.956137038776036 2.8143780474174482 11.696000219645553 0 0 0
5530 3 9.312129727153392 1.8420765933624668 11.8130590034429 0 0 0
5527 1 11.932565934698813 0.001468933972010311 11.749146588558599 0 0 0
5587 4 11.969113484002074 2.8352052659113074 11.770123328291193 0 0 0
5531 4 14.809299417583599 0.8555862915683782 11.685991373730683 0 0 0
5536 1 17.406009648429293 1.7903283470836446 11.725140963983689 0 0 0
5584 1 1.338033678165484 4.593353137054823 11.873007575592258 0 0 0
5585 4 6.630364732353404 3.7068243497399918 11.743919238008194 0 0 0
5641 3 3.858661947281816 5.671231606468182 11.756423560394095 0 0 0
5590 1 9.268749714166328 4.682828832881876 11.813032331838276 0 0 0
5647 1 11.908917996459685 5.706435586001513 11.754136994571967 0 0 0
5591 3 14.587686261030214 3.5584761297095073 11.694155089161946 0 0 0
5596 5 17.39807581002588 4.604622280820154 11.69561613361572 0 0 0
5644 1 1.36372956658992 7.49514907865847 11.609181278116361 0 0 0
5645 5 6.599080838543771 6.512416963323879 11.739279232628887 0 0 0
5701 4 3.957271960492176 8.423081240572621 11.704874808136761 0 0 0
5705 5 6.613828989561031 9.436909358877305 11.575121086605133 0 0 0
5650 3 9.354851405201417 7.511712549819246 11.647783733543134 0 0 0
5707 2 11.998249822304794 8.529732428900374 11.63339137070956 0 0 0
5651 5 14.641302737043235 6.585845453322175 11.714255433403373 0 0 0
5711 4 14.696656409285588 9.475125267539422 11.692985668152936 0 0 0
5656 2 17.437422380707282 7.561321771648107 11.696135933605103 0 0 0
5704 4 1.3311223005675088 10.30041144483467 11.53914950025787 0 0 0
5761 2 3.962628923857385 11.210452844101177 11.634640718108777 0 0 0
5765 1 6.694569736152309 12.26965948967477 11.629023319870237 0 0 0
5710 4 9.353488275153437 10.275589044402764 11.608132944228856 0 0 0
5767 1 11.996507475686847 11.243561028433316 11.63154628381923 0 0 0
5771 4 14.632699178168707 12.261265355686774 11.562420321216504 0 0 0
5716 5 17.376910808906935 10.400789721401534 11.605855005264406 0 0 0
5764 5 1.2354825810209837 13.225129865853622 11.626999306317884 0 0 0
5824 4 1.3410123315534355 16.088369370187802 11.538163265475452 0 0 0
5821 5 3.9639716728400938 14.286793952530957 11.747553758010902 0 0 0
5825 1 6.657783009138843 15.087974704268499 11.49309525583165 0 0 0
5770 4 9.32577463336701 13.100956804843927 11.52493792959216 0 0 0
5830 1 9.373488794078582 15.915412435128207 11.485006957572525 0 0 0
5827 5 12.066357329532215 14.004508168302316 11.588482435688027 0 0 0
5831 4 14.719862866614527 15.110317858710356 11.604443012683964 0 0 0
5776 2 17.290024035287747 13.251711413779999 11.671468031308875 0 0 0
5836 1 17.306506646585802 16.128761342972727 11.533828926159085 0 0 0
5833 5 20.062708026286984 14.209162900790894 11.681693096740867 0 0 0
8286 1 2.661043700883243 0.964420634239955 14.026353831550253 0 0 0
8282 2 5.367326182959027 1.919472723883253 13.99548124032229 0 0 0
8289 2 8.03130850851363 0.01998877722292979 13.921051969483411 0 0 0
8349 4 8.036275991578135 2.8597789805554124 13.937264918405361 0 0 0
8292 3 10.643777712995604 0.8570130601098346 14.04401691741073 0 0 0
8288 5 13.393159953778254 1.7401593189710374 13.961265166783392 0 0 0
8295 2 16.072809945762348 -0.02642738193704305 14.074494507052625 0 0 0
8355 3 16.15947444670397 2.7373177023683946 14.067422922768031 0 0 0
8298 2 18.816374728244547 0.8447148656061224 14.051303658444585 0 0 0
8346 4 2.7087940993082875 3.7610520660455173 14.033890289722084 0 0 0
8344 5 1.2874098089761494 4.739396158048788 16.177977851876502 0 0 0
8403 4 -0.051997741197238066 5.633624460969266 13.881336421686282 0 0 0
8342 2 5.282842721397275 4.7422148743582415 13.988514140862073 0 0 0
8409 3 7.94968785653511 5.55343574867384 14.084631391163965 0 0 0
8352 4 10.646769079932184 3.6533118603972805 13.98521242363587 0 0 0
8348 5 13.287642124805355 4.713332994038884 14.02190599411019 0 0 0
8415 5 16.076049925147824 5.647731534107103 14.119361413448487 0 0 0
8358 1 18.818944226904694 3.6376911545036217 14.038748095708884 0 0 0
8406 4 2.622631953206293 6.580791567159758 14.03770721068501 0 0 0
8463 2 0.027460435087259927 8.42368479556176 13.907939832515803 0 0 0
8466 4 2.6441737313846274 9.337926539889743 13.8911800672502 0 0 0
8404 3 1.2648638542925472 7.520615515022734 16.221027986019177 0 0 0
8402 4 5.244381995688587 7.491617071878844 13.98460255986018 0 0 0
8461 2 3.880632495568047 8.410254188295472 16.246841931751455 0 0 0
8469 2 8.020202277434219 8.358744714103459 13.929607214147882 0 0 0
8412 3 10.644301319602574 6.566929395664309 14.01117224013131 0 0 0
8472 1 10.65919394602102 9.326556846555695 13.930805413294332 0 0 0
8408 4 13.473001728857238 7.5955467447615925 14.024376277256527 0 0 0
8475 1 16.126663528668832 8.550802130852576 14.10072303684743 0 0 0
8418 5 18.900771969178226 6.578877453855747 14.07181795808633 0 0 0
8478 1 18.877000320711144 9.539080062775534 14.121783233927044 0 0 0
8526 5 2.611203754710792 12.250500769273073 13.988439450712328 0 0 0
8464 5 1.255437842764594 10.375455139479723 16.2392488807068 0 0 0
8462 2 5.300832081172209 10.264820535717979 13.964679612324028 0 0 0
8529 2 8.058250472916834 11.21265227723316 13.910604105065666 0 0 0
8525 2 6.733876554211807 12.191031324366056 16.247858740466878 0 0 0
8532 1 10.684923874920148 12.181015438089233 13.906026388400647 0 0 0
8468 4 13.251846004194327 10.320544380759461 13.96775454647286 0 0 0
8535 5 15.898941857583312 11.357202795060564 13.947367183719672 0 0 0
8538 3 18.73243694295432 12.313841282135986 13.9832863861608 0 0 0
8583 1 0.005147928713594266 14.169928069106996 14.00255657623077 0 0 0
8586 4 2.58291415503628 15.2032155985572 14.079286992441522 0 0 0
8522 1 5.341936697114221 13.175889868349467 13.938581903878312 0 0 0
8582 4 5.24833678589823 15.92975459723839 13.8461963809078 0 0 0
8589 2 7.996208799034456 14.080217146217752 13.913694559726546 0 0 0
8590 2 9.297295746733003 16.014638591582347 16.21295686093578 0 0 0
8592 2 10.669297619732767 15.01584413925202 13.89327576709401 0 0 0
8528 1 13.35159835642769 13.138859027478393 13.961131843806738 0 0 0
8588 2 13.369095009143455 16.01119140782694 13.86996822214968 0 0 0
8595 4 15.946876402495205 14.139025722813765 13.933341146966471 0 0 0
8598 1 18.601456165988814 15.119949748588327 13.997994581157752 0 0 0
8284 5 1.3141978823123022 1.8118558252597419 16.433060932507217 0 0 0
11046 2 2.8143367108802617 1.1492758961425844 18.811677449354097 0 0 0
8281 1 3.9157548686615367 -0.002679427691739821 16.3163161626214 0 0 0
8285 1 6.654807186653347 0.8689851603351978 16.323085658890008 0 0 0
8341 2 3.9785669758994735 2.943371958152243 16.38134540148294 0 0 0
11042 1 5.505751917858471 1.891311931221251 18.67939622006329 0 0 0
8290 1 9.390493069352434 1.8171856047228405 16.32567817188716 0 0 0
11109 5 8.131951786595302 2.79087301159182 18.62585945971894 0 0 0
8347 5 12.032040758505536 2.8067303661844036 16.4033754689677 0 0 0
11052 3 10.726802375401467 0.9451363873358566 18.59677670388323 0 0 0
11048 4 13.387702562086893 1.7545578008753788 18.66060433507497 0 0 0
8291 3 14.767013459570302 1.0276709696857254 16.460529221937936 0 0 0
11055 3 16.164565204583347 -0.031332772266623635 18.668922279675137 0 0 0
11115 2 16.107486818208468 2.725614807743432 18.654160370877925 0 0 0
8296 3 17.50615635189485 1.811014081178637 16.40002978619421 0 0 0
11058 2 18.8949570739372 0.9857225887318977 18.713296976056604 0 0 0
11106 3 2.48676081665813 3.9220701098803508 18.738165766848606 0 0 0
8401 3 3.9910331822990304 5.67938900497342 16.321734573914597 0 0 0
11102 4 5.160728019975489 4.611383440038813 18.739559894168213 0 0 0
8345 2 6.6656388444872805 3.780708907826997 16.299912279989627 0 0 0
8350 2 9.349125919898398 4.714412894150806 16.328533028095052 0 0 0
11169 3 7.919655270570683 5.6622424533586 18.62674064267895 0 0 0
8407 1 12.011024868151893 5.640987004015106 16.327039455255644 0 0 0
11112 4 10.743813180700148 3.8220783345257625 18.676990330953384 0 0 0
11108 3 13.38571363314961 4.600941354779027 18.639642986379172 0 0 0
8351 4 14.689514423637087 3.7253332201324554 16.31054023422567 0 0 0
11175 5 16.068477315098672 5.618393435555073 18.68300261445602 0 0 0
8356 2 17.485941138296067 4.631949365216831 16.381900183874865 0 0 0
11118 2 18.85581259202272 3.7203345012610463 18.71308969310754 0 0 0
11223 3 -0.03972659263016691 8.562048411476777 18.622894648834375 0 0 0
11166 3 2.589590319766552 6.650645816120785 18.68335889525242 0 0 0
11226 3 2.700486788810209 9.40457573562802 18.65486613359832 0 0 0
8405 1 6.648809240153838 6.521284405033959 16.324476668008792 0 0 0
11162 2 5.209815043103548 7.473661889754947 18.59515361199832 0 0 0
8465 2 6.652641066643175 9.318677416567098 16.275442905374636 0 0 0
8410 3 9.243800658938493 7.5007485571681745 16.332318378520185 0 0 0
11229 2 7.917481890103837 8.422038012266226 18.63724584825994 0 0 0
8467 5 11.974606626895227 8.418285318786454 16.268304471970968 0 0 0
11172 4 10.664493441246755 6.575058695910875 18.64110666608387 0 0 0
11232 5 10.604658824100929 9.387572843273082 18.675562699487234 0 0 0
11168 3 13.374343232524874 7.456611890994228 18.71834541748938 0 0 0
8411 3 14.663969686287972 6.514249869835418 16.3799680080321 0 0 0
8471 5 14.732927563563258 9.411937107395254 16.319742920480053 0 0 0
11235 3 16.19579205175144 8.47772507962945 18.684320771969226 0 0 0
8416 3 17.481998318585276 7.515983765565038 16.387469432315687 0 0 0
11178 2 18.821741334170298 6.570929414858636 18.699908311303744 0 0 0
11238 1 18.74903943170251 9.35458341394153 18.654521297351764 0 0 0
11283 1 -0.02407853885171983 11.36659244435505 18.61562749387193 0 0 0
11286 3 2.598390932033191 12.284142702038489 18.748186699884265 0 0 0
8521 5 4.0265194336239825 11.294495772453947 16.349807560602706 0 0 0
11222 2 5.281176418554816 10.325026695498348 18.69101673887101 0 0 0
8470 4 9.306978568938938 10.277196065821055 16.29917019021157 0 0 0
11289 2 7.971633924606261 11.276649211364838 18.651243275789465 0 0 0
8527 2 11.939331952930806 11.333588521548188 16.338513056459675 0 0 0
11292 3 10.57658319724161 12.257311919441022 18.631580339802852 0 0 0
11228 2 13.297525427795277 10.36154422203046 18.673888751429004 0 0 0
8531 1 14.660313627615087 12.249400181638052 16.34702578130598 0 0 0
11295 2 16.061514783998803 11.28901083480098 18.69766892088637 0 0 0
8476 3 17.440680739011505 10.372908715851633 16.388386607543666 0 0 0
11298 2 18.80108835098333 12.18377813470628 18.67248248660192 0 0 0
8533 3 20.103914649754362 11.21900859895591 16.305718554333332 0 0 0
8524 3 1.2701972784223803 13.343898891000928 16.360734017000123 0 0 0
8584 1 1.1853975376957442 16.2045344343794 16.334802906706212 0 0 0
11346 2 2.6153098361491076 15.160018405088392 18.54081812901163 0 0 0
8581 1 3.999279515680916 14.165475239133478 16.31138465666837 0 0 0
8585 5 6.5894729112148 15.102012214549298 16.265792211128005 0 0 0
11282 5 5.280817313572141 13.235536964206801 18.61597308575617 0 0 0
11342 4 5.298340648812542 16.13704389584988 18.65723803651549 0 0 0
8530 1 9.389469475218556 13.162583559965057 16.304273211465024 0 0 0
11349 1 7.965483097241709 14.153126390147651 18.589346074220707 0 0 0
8587 4 11.983717582718075 14.14738150905337 16.276349551389146 0 0 0
11352 5 10.60495195758215 15.08745551628327 18.608124344888253 0 0 0
11288 3 13.27063664511361 13.138078988498874 18.64703009930017 0 0 0
11348 3 13.253128045808245 16.107648567412518 18.589111181648274 0 0 0
8591 5 14.643139043560533 15.028118189868508 16.275719729593163 0 0 0
11355 3 15.982779112618537 14.04856981016244 18.649229626490172 0 0 0
8536 2 17.376062631996746 13.192705191608317 16.29912029750845 0 0 0
8596 1 17.275148215735026 16.13289216501507 16.37702429032404 0 0 0
11358 5 18.646375582933807 15.102405260614093 18.661361248498448 0 0 0
11044 2 1.288754911413971 2.05464077900852 20.941095261368822 0 0 0
11041 3 4.105168041297136 -0.011401072888581368 21.076529517309126 0 0 0
11101 3 4.141519926640134 2.8162340118038736 20.907968667841544 0 0 0
11045 1 6.74387690548067 0.9351681945665695 20.905483017291395 0 0 0
11050 4 9.519438083676176 1.9160003134798305 20.907016125165953 0 0 0
11047 5 12.124090690893546 -0.0020370443194338743 20.925367399267046 0 0 0
11107 3 12.134028481108524 2.8801378005263496 20.930115423349815 0 0 0
11051 5 14.863932146656134 0.9448013587335496 21.001593015159003 0 0 0
11053 2 20.083014139047638 -0.025621796354733193 21.055136673948873 0 0 0
11056 3 17.603772032283462 1.9314680437568734 21.01693554470703 0 0 0
11104 1 1.1456707647171263 4.876432340144374 21.01813976714495 0 0 0
11161 4 3.851235601152024 5.635561086509521 20.872498996396047 0 0 0
11105 1 6.752374023493237 3.8257271363377288 20.837533426486903 0 0 0
11110 5 9.455921025209532 4.738480895111531 20.996523269265406 0 0 0
11167 1 12.1804198043492 5.660523561098847 20.914006636800845 0 0 0
11111 1 14.733204512806202 3.749051253852999 20.94250772460039 0 0 0
11116 2 17.498583500224928 4.702487909703842 21.036510165233604 0 0 0
11164 4 1.3420652549769634 7.574770554050669 20.90480053856363 0 0 0
11165 2 6.57731019300303 6.648883591504612 20.993283068547875 0 0 0
11221 4 3.8923116279596948 8.469571191584546 20.874330562829343 0 0 0
11225 3 6.57577064051128 9.455739222835673 20.8898903167853 0 0 0
11170 1 9.402348670806596 7.533225274884933 20.89338813119831 0 0 0
11227 3 12.055209145845916 8.471464396256943 21.03071946857178 0 0 0
11171 1 14.815067635338771 6.726466814331656 20.99823095199541 0 0 0
11231 5 14.820248276568906 9.564315419522158 20.948869247238278 0 0 0
11176 3 17.579143271978317 7.588041871234232 20.976540401305698 0 0 0
11224 1 1.358223378657592 10.428582462900112 20.809465925765092 0 0 0
11281 4 3.986226148582113 11.359615007076902 20.93333500879566 0 0 0
11285 4 6.569587377820046 12.193075479656889 20.97664150973076 0 0 0
11230 2 9.245789466426878 10.413118851029116 20.988477687366192 0 0 0
11287 2 11.959500941045334 11.365181370009191 20.952369406240653 0 0 0
11291 4 14.679114504033354 12.324729449950903 21.017507182671356 0 0 0
11236 4 17.53736981188252 10.324315816523175 21.039305542471322 0 0 0
11296 1 17.377034078602264 13.043961501470083 20.958251847590127 0 0 0
11284 4 1.3076479479160315 13.256252228128888 20.911026582398545 0 0 0
11344 4 1.3307822890400458 16.063904694540266 20.835566665917177 0 0 0
11341 3 3.899956737218263 14.16281752549025 20.8632617517403 0 0 0
11345 2 6.617940482263785 15.037980794340532 20.942710447315438 0 0 0
11290 2 9.23087287713656 13.287768947383402 20.99364539383104 0 0 0
11350 3 9.191998572627035 16.09135920600246 20.982085587901892 0 0 0
11347 4 11.915825775158444 14.200896897201114 20.888353394916233 0 0 0
11351 5 14.53117891539442 15.118065528718457 20.903750708283717 0 0 0
11353 3 20.104432915816236 13.974232538507335 20.933729132642323 0 0 0
11356 1 17.221413198668152 16.09733624228811 20.89753751421553 0 0 0
13804 5 1.3160969460067184 1.6159642300411046 25.724836779324423 0 0 0
13806 2 2.6011216097166256 0.8487192692403891 23.279670104811238 0 0 0
13801 3 3.946362409878524 -0.056425002071982214 25.66555306792371 0 0 0
13802 2 5.380514543553384 1.8006696990541808 23.25114718978234 0 0 0
13861 1 4.023302432147503 2.703318873836314 25.671526987734616 0 0 0
13805 2 6.7427926151288196 0.8620236249414005 25.695069056929164 0 0 0
13810 1 9.395712808855569 1.8341405422205384 25.594727057160746 0 0 0
13869 1 8.163921766860938 2.6827916639396547 23.238528805849167 0 0 0
13807 5 12.032145143377148 -0.011408960187943741 25.613467321596776 0 0 0
13812 3 10.671017108883053 1.0147641101990452 23.261807059788616 0 0 0
13867 1 12.168598127061149 2.889264668361226 25.533549394631326 0 0 0
13808 3 13.432539413432568 1.9386948304130767 23.327082995218326 0 0 0
13811 1 14.74971213292082 0.9799738883122795 25.550385422538493 0 0 0
13815 1 16.108949368113432 -0.03414554650943965 23.28996016851785 0 0 0
13875 1 16.115138609942683 2.8654515756215853 23.281002827905578 0 0 0
13816 5 17.434033428311018 1.9308361905818736 25.59854209918915 0 0 0
13818 4 18.870208344468985 0.9336435593315021 23.323022566552165 0 0 0
13864 2 1.195173415617936 4.57064152799179 25.64985540113418 0 0 0
13866 5 2.6347898888689163 3.7471332728838695 23.262508724992077 0 0 0
13923 3 -0.0336371145300206 5.615236059595882 23.37618992122922 0 0 0
13862 5 5.387005047752099 4.771829436651242 23.12936640303283 0 0 0
13921 1 4.0023021662762766 5.62896130390994 25.512261327077614 0 0 0
13865 5 6.783014969178891 3.7283359093887456 25.5572054036161 0 0 0
13870 3 9.538154079560499 4.615518882166943 25.610278385063463 0 0 0
13929 1 8.1175415019991 5.6127313405909085 23.42868700150267 0 0 0
13872 1 10.914422400938921 3.751140437947828 23.273354087657175 0 0 0
13927 4 12.153166899663757 5.63111091319091 25.58707295338187 0 0 0
13868 4 13.594241398515974 4.758266496922722 23.361795058150317 0 0 0
13871 4 14.872951432721946 3.815850510257939 25.652224154220924 0 0 0
13935 1 16.249300331119372 5.740157336137184 23.39160242676645 0 0 0
13876 4 17.497940122824716 4.746367305630246 25.677257301828394 0 0 0
13878 2 18.803570225846613 3.7884957708906497 23.313710950259274 0 0 0
13924 2 1.2256048234048031 7.496961206756802 25.623493315292528 0 0 0
13926 4 2.61642955600018 6.579400561126714 23.20083131294978 0 0 0
13986 2 2.648281357583367 9.413764912891125 23.10660414805814 0 0 0
13922 3 5.072834018869064 7.624419220752348 23.124998027104258 0 0 0