 # Bcc Nb oriented X=[11-2], Y=[111], Z=[1-10].
  
       38640  atoms
           5  atom types
 
      0.000000000000      80.588212540000  xlo xhi
      0.000000000000     131.064284610000  ylo yhi
      0.000000000000      65.138676680000  zlo zhi
 
Masses
 
            1   180.94788000            # Ta
            2   50.94150000             # V
            3   47.86700000             # Ti
            4   92.90638000             # Nb
            5   91.22400000             # Zr
 
Atoms # atomic
 
         1    1        4.029410627000       0.000000000000       2.326381589166
         2    1        5.372547771294       1.899481910782       0.000000000000
         3    2        0.000000000000       0.000000000000       0.000000000000
         4    2        1.343137144294       1.899481910782       2.326381589166
         5    1        6.715684109706       0.949741610712       2.326381589166
         6    1        2.686273482706       0.949741610712       0.000000000000
         7    3       12.088231881000       0.000000000000       2.326381589166
         8    3       13.431369025294       1.899481910782       0.000000000000
         9    4        8.058821254000       0.000000000000       0.000000000000
        10    5        9.401958398294       1.899481910782       2.326381589166
        11    2       14.774505363706       0.949741610712       2.326381589166
        12    2       10.745094736706       0.949741610712       0.000000000000
        13    2       20.147053135000       0.000000000000       2.326381589166
        14    2       21.490190279294       1.899481910782       0.000000000000
        15    2       16.117642508000       0.000000000000       0.000000000000
        16    5       17.460779652294       1.899481910782       2.326381589166
        17    5       22.833326617706       0.949741610712       2.326381589166
        18    5       18.803915990706       0.949741610712       0.000000000000
        19    1       28.205874389000       0.000000000000       2.326381589166
        20    5       29.549011533294       1.899481910782       0.000000000000
        21    3       24.176463762000       0.000000000000       0.000000000000
        22    1       25.519600906294       1.899481910782       2.326381589166
        23    5       30.892147871706       0.949741610712       2.326381589166
        24    3       26.862737244706       0.949741610712       0.000000000000
        25    5       36.264695643000       0.000000000000       2.326381589166
        26    5       37.607832787294       1.899481910782       0.000000000000
        27    1       32.235285016000       0.000000000000       0.000000000000
        28    5       33.578422160294       1.899481910782       2.326381589166
        29    1       38.950969125706       0.949741610712       2.326381589166
        30    1       34.921558498706       0.949741610712       0.000000000000
        31    1       44.323516897000       0.000000000000       2.326381589166
        32    5       45.666654041294       1.899481910782       0.000000000000
        33    4       40.294106270000       0.000000000000       0.000000000000
        34    2       41.637243414294       1.899481910782       2.326381589166
        35    4       47.009790379706       0.949741610712       2.326381589166
        36    1       42.980379752706       0.949741610712       0.000000000000
        37    1       52.382338151000       0.000000000000       2.326381589166
        38    2       53.725475295294       1.899481910782       0.000000000000
        39    4       48.352927524000       0.000000000000       0.000000000000
        40    1       49.696064668294       1.899481910782       2.326381589166
        41    5       55.068611633706       0.949741610712       2.326381589166
        42    2       51.039201006706       0.949741610712       0.000000000000
        43    2       60.441159405000       0.000000000000       2.326381589166
        44    2       61.784296549294       1.899481910782       0.000000000000
        45    4       56.411748778000       0.000000000000       0.000000000000
        46    1       57.754885922294       1.899481910782       2.326381589166
        47    4       63.127432887706       0.949741610712       2.326381589166
        48    2       59.098022260706       0.949741610712       0.000000000000
        49    3       68.499980659000       0.000000000000       2.326381589166
        50    1       69.843117803294       1.899481910782       0.000000000000
        51    5       64.470570032000       0.000000000000       0.000000000000
        52    1       65.813707176294       1.899481910782       2.326381589166
        53    1       71.186254141706       0.949741610712       2.326381589166
        54    2       67.156843514706       0.949741610712       0.000000000000
        55    3       76.558801913000       0.000000000000       2.326381589166
        56    5       77.901939057294       1.899481910782       0.000000000000
        57    1       72.529391286000       0.000000000000       0.000000000000
        58    1       73.872528430294       1.899481910782       2.326381589166
        59    2       79.245075395706       0.949741610712       2.326381589166
        60    2       75.215664768706       0.949741610712       0.000000000000
        61    4        4.029410627000       2.849223521494       2.326381589166
        62    5        5.372547771294       4.748705432275       0.000000000000
        63    4        0.000000000000       2.849223521494       0.000000000000
        64    2        1.343137144294       4.748705432275       2.326381589166
        65    2        6.715684109706       3.798965132206       2.326381589166
        66    3        2.686273482706       3.798965132206       0.000000000000
        67    5       12.088231881000       2.849223521494       2.326381589166
        68    2       13.431369025294       4.748705432275       0.000000000000
        69    5        8.058821254000       2.849223521494       0.000000000000
        70    5        9.401958398294       4.748705432275       2.326381589166
        71    4       14.774505363706       3.798965132206       2.326381589166
        72    5       10.745094736706       3.798965132206       0.000000000000
        73    5       20.147053135000       2.849223521494       2.326381589166
        74    3       21.490190279294       4.748705432275       0.000000000000
        75    2       16.117642508000       2.849223521494       0.000000000000
        76    1       17.460779652294       4.748705432275       2.326381589166
        77    1       22.833326617706       3.798965132206       2.326381589166
        78    1       18.803915990706       3.798965132206       0.000000000000
        79    1       28.205874389000       2.849223521494       2.326381589166
        80    3       29.549011533294       4.748705432275       0.000000000000
        81    2       24.176463762000       2.849223521494       0.000000000000
        82    3       25.519600906294       4.748705432275       2.326381589166
        83    5       30.892147871706       3.798965132206       2.326381589166
        84    4       26.862737244706       3.798965132206       0.000000000000
        85    1       36.264695643000       2.849223521494       2.326381589166
        86    1       37.607832787294       4.748705432275       0.000000000000
        87    1       32.235285016000       2.849223521494       0.000000000000
        88    1       33.578422160294       4.748705432275       2.326381589166
        89    1       38.950969125706       3.798965132206       2.326381589166
        90    3       34.921558498706       3.798965132206       0.000000000000
        91    3       44.323516897000       2.849223521494       2.326381589166
        92    3       45.666654041294       4.748705432275       0.000000000000
        93    2       40.294106270000       2.849223521494       0.000000000000
        94    4       41.637243414294       4.748705432275       2.326381589166
        95    4       47.009790379706       3.798965132206       2.326381589166
        96    5       42.980379752706       3.798965132206       0.000000000000
        97    5       52.382338151000       2.849223521494       2.326381589166
        98    2       53.725475295294       4.748705432275       0.000000000000
        99    1       48.352927524000       2.849223521494       0.000000000000
       100    2       49.696064668294       4.748705432275       2.326381589166
       101    4       55.068611633706       3.798965132206       2.326381589166
       102    1       51.039201006706       3.798965132206       0.000000000000
       103    5       60.441159405000       2.849223521494       2.326381589166
       104    5       61.784296549294       4.748705432275       0.000000000000
       105    3       56.411748778000       2.849223521494       0.000000000000
       106    1       57.754885922294       4.748705432275       2.326381589166
       107    3       63.127432887706       3.798965132206       2.326381589166
       108    3       59.098022260706       3.798965132206       0.000000000000
       109    2       68.499980659000       2.849223521494       2.326381589166
       110    1       69.843117803294       4.748705432275       0.000000000000
       111    3       64.470570032000       2.849223521494       0.000000000000
       112    1       65.813707176294       4.748705432275       2.326381589166
       113    5       71.186254141706       3.798965132206       2.326381589166
       114    2       67.156843514706       3.798965132206       0.000000000000
       115    2       76.558801913000       2.849223521494       2.326381589166
       116    2       77.901939057294       4.748705432275       0.000000000000
       117    1       72.529391286000       2.849223521494       0.000000000000
       118    2       73.872528430294       4.748705432275       2.326381589166
       119    2       79.245075395706       3.798965132206       2.326381589166
       120    2       75.215664768706       3.798965132206       0.000000000000
       121    4        4.029410627000       5.698447042988       2.326381589166
       122    3        5.372547771294       7.597928953769       0.000000000000
       123    3        0.000000000000       5.698447042988       0.000000000000
       124    3        1.343137144294       7.597928953769       2.326381589166
       125    1        6.715684109706       6.648188653700       2.326381589166
       126    5        2.686273482706       6.648188653700       0.000000000000
       127    3       12.088231881000       5.698447042988       2.326381589166
       128    5       13.431369025294       7.597928953769       0.000000000000
       129    4        8.058821254000       5.698447042988       0.000000000000
       130    1        9.401958398294       7.597928953769       2.326381589166
       131    3       14.774505363706       6.648188653700       2.326381589166
       132    2       10.745094736706       6.648188653700       0.000000000000
       133    4       20.147053135000       5.698447042988       2.326381589166
       134    5       21.490190279294       7.597928953769       0.000000000000
       135    3       16.117642508000       5.698447042988       0.000000000000
       136    5       17.460779652294       7.597928953769       2.326381589166
       137    4       22.833326617706       6.648188653700       2.326381589166
       138    5       18.803915990706       6.648188653700       0.000000000000
       139    5       28.205874389000       5.698447042988       2.326381589166
       140    5       29.549011533294       7.597928953769       0.000000000000
       141    3       24.176463762000       5.698447042988       0.000000000000
       142    3       25.519600906294       7.597928953769       2.326381589166
       143    4       30.892147871706       6.648188653700       2.326381589166
       144    1       26.862737244706       6.648188653700       0.000000000000
       145    3       36.264695643000       5.698447042988       2.326381589166
       146    5       37.607832787294       7.597928953769       0.000000000000
       147    4       32.235285016000       5.698447042988       0.000000000000
       148    5       33.578422160294       7.597928953769       2.326381589166
       149    2       38.950969125706       6.648188653700       2.326381589166
       150    2       34.921558498706       6.648188653700       0.000000000000
       151    3       44.323516897000       5.698447042988       2.326381589166
       152    2       45.666654041294       7.597928953769       0.000000000000
       153    1       40.294106270000       5.698447042988       0.000000000000
       154    2       41.637243414294       7.597928953769       2.326381589166
       155    1       47.009790379706       6.648188653700       2.326381589166
       156    4       42.980379752706       6.648188653700       0.000000000000
       157    3       52.382338151000       5.698447042988       2.326381589166
       158    4       53.725475295294       7.597928953769       0.000000000000
       159    3       48.352927524000       5.698447042988       0.000000000000
       160    2       49.696064668294       7.597928953769       2.326381589166
       161    1       55.068611633706       6.648188653700       2.326381589166
       162    4       51.039201006706       6.648188653700       0.000000000000
       163    3       60.441159405000       5.698447042988       2.326381589166
       164    1       61.784296549294       7.597928953769       0.000000000000
       165    1       56.411748778000       5.698447042988       0.000000000000
       166    1       57.754885922294       7.597928953769       2.326381589166
       167    5       63.127432887706       6.648188653700       2.326381589166
       168    5       59.098022260706       6.648188653700       0.000000000000
       169    1       68.499980659000       5.698447042988       2.326381589166
       170    3       69.843117803294       7.597928953769       0.000000000000
       171    3       64.470570032000       5.698447042988       0.000000000000
       172    5       65.813707176294       7.597928953769       2.326381589166
       173    3       71.186254141706       6.648188653700       2.326381589166
       174    3       67.156843514706       6.648188653700       0.000000000000
       175    5       76.558801913000       5.698447042988       2.326381589166
       176    4       77.901939057294       7.597928953769       0.000000000000
       177    5       72.529391286000       5.698447042988       0.000000000000
       178    4       73.872528430294       7.597928953769       2.326381589166
       179    2       79.245075395706       6.648188653700       2.326381589166
       180    5       75.215664768706       6.648188653700       0.000000000000
       181    5        4.029410627000       8.547670564481       2.326381589166
       182    3        5.372547771294      10.447152475263       0.000000000000
       183    3        0.000000000000       8.547670564481       0.000000000000
       184    1        1.343137144294      10.447152475263       2.326381589166
       185    4        6.715684109706       9.497412175194       2.326381589166
       186    1        2.686273482706       9.497412175194       0.000000000000
       187    4       12.088231881000       8.547670564481       2.326381589166
       188    4       13.431369025294      10.447152475263       0.000000000000
       189    1        8.058821254000       8.547670564481       0.000000000000
       190    1        9.401958398294      10.447152475263       2.326381589166
       191    1       14.774505363706       9.497412175194       2.326381589166
       192    5       10.745094736706       9.497412175194       0.000000000000
       193    4       20.147053135000       8.547670564481       2.326381589166
       194    5       21.490190279294      10.447152475263       0.000000000000
       195    5       16.117642508000       8.547670564481       0.000000000000
       196    4       17.460779652294      10.447152475263       2.326381589166
       197    2       22.833326617706       9.497412175194       2.326381589166
       198    3       18.803915990706       9.497412175194       0.000000000000
       199    1       28.205874389000       8.547670564481       2.326381589166
       200    5       29.549011533294      10.447152475263       0.000000000000
       201    1       24.176463762000       8.547670564481       0.000000000000
       202    2       25.519600906294      10.447152475263       2.326381589166
       203    5       30.892147871706       9.497412175194       2.326381589166
       204    2       26.862737244706       9.497412175194       0.000000000000
       205    5       36.264695643000       8.547670564481       2.326381589166
       206    2       37.607832787294      10.447152475263       0.000000000000
       207    4       32.235285016000       8.547670564481       0.000000000000
       208    2       33.578422160294      10.447152475263       2.326381589166
       209    4       38.950969125706       9.497412175194       2.326381589166
       210    2       34.921558498706       9.497412175194       0.000000000000
       211    1       44.323516897000       8.547670564481       2.326381589166
       212    1       45.666654041294      10.447152475263       0.000000000000
       213    3       40.294106270000       8.547670564481       0.000000000000
       214    4       41.637243414294      10.447152475263       2.326381589166
       215    4       47.009790379706       9.497412175194       2.326381589166
       216    3       42.980379752706       9.497412175194       0.000000000000
       217    4       52.382338151000       8.547670564481       2.326381589166
       218    4       53.725475295294      10.447152475263       0.000000000000
       219    2       48.352927524000       8.547670564481       0.000000000000
       220    3       49.696064668294      10.447152475263       2.326381589166
       221    1       55.068611633706       9.497412175194       2.326381589166
       222    5       51.039201006706       9.497412175194       0.000000000000
       223    5       60.441159405000       8.547670564481       2.326381589166
       224    4       61.784296549294      10.447152475263       0.000000000000
       225    2       56.411748778000       8.547670564481       0.000000000000
       226    4       57.754885922294      10.447152475263       2.326381589166
       227    2       63.127432887706       9.497412175194       2.326381589166
       228    4       59.098022260706       9.497412175194       0.000000000000
       229    5       68.499980659000       8.547670564481       2.326381589166
       230    2       69.843117803294      10.447152475263       0.000000000000
       231    5       64.470570032000       8.547670564481       0.000000000000
       232    3       65.813707176294      10.447152475263       2.326381589166
       233    2       71.186254141706       9.497412175194       2.326381589166
       234    4       67.156843514706       9.497412175194       0.000000000000
       235    4       76.558801913000       8.547670564481       2.326381589166
       236    4       77.901939057294      10.447152475263       0.000000000000
       237    4       72.529391286000       8.547670564481       0.000000000000
       238    4       73.872528430294      10.447152475263       2.326381589166
       239    1       79.245075395706       9.497412175194       2.326381589166
       240    2       75.215664768706       9.497412175194       0.000000000000
       241    2        4.029410627000      11.396894085975       2.326381589166
       242    3        5.372547771294      13.296377307400       0.000000000000
       243    4        0.000000000000      11.396894085975       0.000000000000
       244    3        1.343137144294      13.296377307400       2.326381589166
       245    3        6.715684109706      12.346635696687       2.326381589166
       246    3        2.686273482706      12.346635696687       0.000000000000
       247    5       12.088231881000      11.396894085975       2.326381589166
       248    3       13.431369025294      13.296377307400       0.000000000000
       249    5        8.058821254000      11.396894085975       0.000000000000
       250    3        9.401958398294      13.296377307400       2.326381589166
       251    3       14.774505363706      12.346635696687       2.326381589166
       252    2       10.745094736706      12.346635696687       0.000000000000
       253    3       20.147053135000      11.396894085975       2.326381589166
       254    4       21.490190279294      13.296377307400       0.000000000000
       255    3       16.117642508000      11.396894085975       0.000000000000
       256    5       17.460779652294      13.296377307400       2.326381589166
       257    2       22.833326617706      12.346635696687       2.326381589166
       258    2       18.803915990706      12.346635696687       0.000000000000
       259    4       28.205874389000      11.396894085975       2.326381589166
       260    4       29.549011533294      13.296377307400       0.000000000000
       261    1       24.176463762000      11.396894085975       0.000000000000
       262    2       25.519600906294      13.296377307400       2.326381589166
       263    1       30.892147871706      12.346635696687       2.326381589166
       264    3       26.862737244706      12.346635696687       0.000000000000
       265    3       36.264695643000      11.396894085975       2.326381589166
       266    1       37.607832787294      13.296377307400       0.000000000000
       267    4       32.235285016000      11.396894085975       0.000000000000
       268    1       33.578422160294      13.296377307400       2.326381589166
       269    1       38.950969125706      12.346635696687       2.326381589166
       270    1       34.921558498706      12.346635696687       0.000000000000
       271    2       44.323516897000      11.396894085975       2.326381589166
       272    1       45.666654041294      13.296377307400       0.000000000000
       273    4       40.294106270000      11.396894085975       0.000000000000
       274    5       41.637243414294      13.296377307400       2.326381589166
       275    4       47.009790379706      12.346635696687       2.326381589166
       276    1       42.980379752706      12.346635696687       0.000000000000
       277    5       52.382338151000      11.396894085975       2.326381589166
       278    5       53.725475295294      13.296377307400       0.000000000000
       279    2       48.352927524000      11.396894085975       0.000000000000
       280    4       49.696064668294      13.296377307400       2.326381589166
       281    1       55.068611633706      12.346635696687       2.326381589166
       282    4       51.039201006706      12.346635696687       0.000000000000
       283    4       60.441159405000      11.396894085975       2.326381589166
       284    4       61.784296549294      13.296377307400       0.000000000000
       285    3       56.411748778000      11.396894085975       0.000000000000
       286    3       57.754885922294      13.296377307400       2.326381589166
       287    1       63.127432887706      12.346635696687       2.326381589166
       288    3       59.098022260706      12.346635696687       0.000000000000
       289    2       68.499980659000      11.396894085975       2.326381589166
       290    5       69.843117803294      13.296377307400       0.000000000000
       291    2       64.470570032000      11.396894085975       0.000000000000
       292    5       65.813707176294      13.296377307400       2.326381589166
       293    5       71.186254141706      12.346635696687       2.326381589166
       294    1       67.156843514706      12.346635696687       0.000000000000
       295    1       76.558801913000      11.396894085975       2.326381589166
       296    2       77.901939057294      13.296377307400       0.000000000000
       297    2       72.529391286000      11.396894085975       0.000000000000
       298    4       73.872528430294      13.296377307400       2.326381589166
       299    2       79.245075395706      12.346635696687       2.326381589166
       300    2       75.215664768706      12.346635696687       0.000000000000
       301    2        4.029410627000      14.246117607469       2.326381589166
       302    2        5.372547771294      16.145600828893       0.000000000000
       303    4        0.000000000000      14.246117607469       0.000000000000
       304    2        1.343137144294      16.145600828893       2.326381589166
       305    1        6.715684109706      15.195859218181       2.326381589166
       306    2        2.686273482706      15.195859218181       0.000000000000
       307    2       12.088231881000      14.246117607469       2.326381589166
       308    4       13.431369025294      16.145600828893       0.000000000000
       309    1        8.058821254000      14.246117607469       0.000000000000
       310    5        9.401958398294      16.145600828893       2.326381589166
       311    3       14.774505363706      15.195859218181       2.326381589166
       312    4       10.745094736706      15.195859218181       0.000000000000
       313    3       20.147053135000      14.246117607469       2.326381589166
       314    4       21.490190279294      16.145600828893       0.000000000000
       315    5       16.117642508000      14.246117607469       0.000000000000
       316    1       17.460779652294      16.145600828893       2.326381589166
       317    2       22.833326617706      15.195859218181       2.326381589166
       318    2       18.803915990706      15.195859218181       0.000000000000
       319    5       28.205874389000      14.246117607469       2.326381589166
       320    5       29.549011533294      16.145600828893       0.000000000000
       321    1       24.176463762000      14.246117607469       0.000000000000
       322    4       25.519600906294      16.145600828893       2.326381589166
       323    2       30.892147871706      15.195859218181       2.326381589166
       324    4       26.862737244706      15.195859218181       0.000000000000
       325    3       36.264695643000      14.246117607469       2.326381589166
       326    1       37.607832787294      16.145600828893       0.000000000000
       327    5       32.235285016000      14.246117607469       0.000000000000
       328    3       33.578422160294      16.145600828893       2.326381589166
       329    5       38.950969125706      15.195859218181       2.326381589166
       330    1       34.921558498706      15.195859218181       0.000000000000
       331    4       44.323516897000      14.246117607469       2.326381589166
       332    2       45.666654041294      16.145600828893       0.000000000000
       333    5       40.294106270000      14.246117607469       0.000000000000
       334    2       41.637243414294      16.145600828893       2.326381589166
       335    5       47.009790379706      15.195859218181       2.326381589166
       336    3       42.980379752706      15.195859218181       0.000000000000
       337    3       52.382338151000      14.246117607469       2.326381589166
       338    1       53.725475295294      16.145600828893       0.000000000000
       339    3       48.352927524000      14.246117607469       0.000000000000
       340    5       49.696064668294      16.145600828893       2.326381589166
       341    4       55.068611633706      15.195859218181       2.326381589166
       342    4       51.039201006706      15.195859218181       0.000000000000
       343    4       60.441159405000      14.246117607469       2.326381589166
       344    4       61.784296549294      16.145600828893       0.000000000000
       345    5       56.411748778000      14.246117607469       0.000000000000
       346    2       57.754885922294      16.145600828893       2.326381589166
       347    2       63.127432887706      15.195859218181       2.326381589166
       348    5       59.098022260706      15.195859218181       0.000000000000
       349    5       68.499980659000      14.246117607469       2.326381589166
       350    1       69.843117803294      16.145600828893       0.000000000000
       351    5       64.470570032000      14.246117607469       0.000000000000
       352    2       65.813707176294      16.145600828893       2.326381589166
       353    2       71.186254141706      15.195859218181       2.326381589166
       354    5       67.156843514706      15.195859218181       0.000000000000
       355    5       76.558801913000      14.246117607469       2.326381589166
       356    3       77.901939057294      16.145600828893       0.000000000000
       357    2       72.529391286000      14.246117607469       0.000000000000
       358    1       73.872528430294      16.145600828893       2.326381589166
       359    3       79.245075395706      15.195859218181       2.326381589166
       360    2       75.215664768706      15.195859218181       0.000000000000
       361    3        4.029410627000      17.095341128963       2.326381589166
       362    2        5.372547771294      18.994824350387       0.000000000000
       363    2        0.000000000000      17.095341128963       0.000000000000
       364    2        1.343137144294      18.994824350387       2.326381589166
       365    1        6.715684109706      18.045082739675       2.326381589166
       366    4        2.686273482706      18.045082739675       0.000000000000
       367    4       12.088231881000      17.095341128963       2.326381589166
       368    1       13.431369025294      18.994824350387       0.000000000000