LAMMPS data file via write_data, version 2 Aug 2023, timestep = 5028288, units = metal

38640 atoms
5 atom types

-0.048519632445310115 80.63673217242943 xlo xhi
-0.2677791536712329 131.33206376362295 ylo yhi
0.011238156442730728 65.1274385235681 zlo zhi

Atom Type Labels

1 Nb
2 Ta
3 Ti
4 V
5 Zr

Masses

1 92.90600000000001
2 180.948
3 47.88
4 50.942
5 91.22

Atoms # atomic

29301 1 3.512060015495715 2.0366676479150003 1.795034207566032 1 0 0
29278 2 0.8227956102340831 1.0416122444652236 1.814730682605885 1 0 0
29299 1 2.2528437142303708 2.9293950932615798 4.052091019774116 1 0 0
29281 1 6.16912037737122 0.14343658775731596 1.8547649407385005 1 0 0
29304 1 6.230044157207363 3.017413908681229 1.932536911631852 1 0 0
178 1 8.875487996105933 1.1722054564272513 1.8914686177136155 0 0 0
196 5 11.63106697151912 2.136909081302659 2.0610356867624793 0 0 0
181 5 14.605891942251501 0.007968695175935132 2.148718375519819 0 0 0
199 5 14.626766109437504 2.9970783639349707 2.0395587484992306 0 0 0
183 5 17.494683490542272 1.0385510590248164 2.059661519581225 0 0 0
29297 4 0.8196599727487565 3.836817621635586 1.767367836605271 1 0 0
29303 2 3.603330767866194 4.8685633610606915 1.855448358286315 1 0 0
29321 2 0.9881554244488528 6.667456819847343 1.8328322642063741 1 0 0
29325 2 3.7573907014431946 7.644812814212392 1.8077073272915254 1 0 0
29320 1 2.3075661202909212 5.757633643910826 4.090196667895105 1 0 0
29328 4 6.4146608277827575 5.852609156013785 1.8488224441978147 1 0 0
192 3 8.954828218312281 3.978978171033645 1.9664256695406 0 0 0
211 2 9.181118299015917 6.757638906020639 1.9052814021513598 0 0 0
198 3 11.644797699072258 5.029077062301711 1.9146815306869913 0 0 0
216 3 11.794800021913153 7.7834647789692974 1.870628829639922 0 0 0
219 5 14.471085017463764 5.9861637814344615 1.9282310056361545 0 0 0
200 3 17.49566306189039 3.9387696723990477 1.9565138916540867 0 0 0
221 5 17.448162096177118 6.8042634052502216 1.8495947120294463 0 0 0
29348 2 3.8324360559950805 10.353839374877046 1.817605123165983 1 0 0
29323 4 1.0818307388944282 9.42374261864275 1.7783649709321672 1 0 0
29324 4 2.469005855344863 8.530424773986772 4.006164320009302 1 0 0
29347 2 2.543171406557769 11.265070329725432 4.024694625008364 1 0 0
29329 4 6.49790702430247 8.537563029033567 1.8591175746031632 1 0 0
236 2 6.568946106409785 11.272079197268956 1.858335752202471 0 0 0
29327 4 5.200074206766508 9.455743092551312 4.05788615768121 1 0 0
214 4 9.210911712983581 9.471538014278824 1.8891240346283615 0 0 0
237 2 11.94144724098002 10.415470926106995 1.8910438086804873 0 0 0
220 3 14.517678157704154 8.850931214113821 1.8168618680540598 0 0 0
240 4 14.642532380379512 11.41740440856111 1.8951684705049165 0 0 0
241 3 17.375929070692727 9.607166582553765 1.8951066608326217 0 0 0
29344 4 1.1586619367835813 12.134909924953673 1.7947298181070546 1 0 0
29350 4 3.9010871461794894 13.072143368265312 1.8415473237435314 1 0 0
29364 2 1.2604495179264648 14.866624479421048 1.7948907807519416 1 0 0
29367 2 2.618182175205223 13.994000100554905 4.033936198487567 1 0 0
29369 4 3.9847045802670222 15.807033257070257 1.8565363377907 1 0 0
29365 4 -0.017291082199169798 15.740876773946725 3.9540667265472114 1 0 0
257 2 6.622337191343511 13.999444450783049 1.878748041922886 0 0 0
232 4 9.27950254897809 12.198476236902044 1.896606627031908 0 0 0
254 2 9.31248982222049 14.939353793289696 1.912521977462564 0 0 0
261 4 11.974152771763286 15.866165632820282 1.939207594241021 0 0 0
239 4 11.93288163090866 13.159715713482138 1.8924477982195171 0 0 0
264 2 14.664930927992936 14.07724210113116 1.9276574150787464 0 0 0
242 2 17.390261560757608 12.26804074389724 1.9382077969176696 0 0 0
266 4 17.390165841701684 14.996596877764064 1.957291539781915 0 0 0
271 2 20.078952277507614 15.904296580776863 1.984851264840831 0 0 0
249 2 20.100762516271768 13.182559216935646 1.957123329280648 0 0 0
29366 2 1.3486669099150987 17.601109923990972 1.8423892928986594 1 0 0
29391 2 4.075318706291664 18.55305874680479 1.8911863081777573 1 0 0
258 4 6.68416959321886 16.74171674310594 1.906819017664859 0 0 0
283 4 6.7519103870223525 19.49485824040023 1.9429922453026414 0 0 0
256 2 9.36092854447584 17.676942439101115 1.9438887094599486 0 0 0
285 2 12.042382996386563 18.621678524069214 1.9666289795469565 0 0 0
265 2 14.706606365494087 16.823495635922704 1.9602733018547966 0 0 0
288 4 14.769471778539259 19.578683679002417 2.0061904471986924 0 0 0
268 2 17.40011370498735 17.74274634433348 1.989991516034105 0 0 0
293 4 20.070401383456808 18.646728676913124 2.02123206700472 0 0 0
29387 4 1.4712215925935792 20.396426267864275 1.875449899804995 1 0 0
29406 3 1.6860315689319507 23.25423506807197 2.1174208268239005 1 0 0
29393 2 4.158185081027842 21.33596674358445 1.9669600236040026 1 0 0
29410 4 4.290291047158266 24.171068615639925 2.0151809537385437 1 0 0
304 2 6.823559146038807 22.258310412952454 1.9974037815462584 0 0 0
280 4 9.415994238022554 20.43040922524111 1.987370315370768 0 0 0
301 4 9.470033559954043 23.188307319957488 2.0280073672889594 0 0 0
287 2 12.0918950588832 21.38698914880116 2.0213873445038595 0 0 0
308 4 12.109576238573279 24.126206741894833 2.066719428920586 0 0 0
311 4 14.776647499272206 22.296001336742304 2.0499893130575293 0 0 0
312 4 17.420678370207256 23.228369467494655 2.0818046657269496 0 0 0
289 2 17.412398040846195 20.49127791027873 2.0437306914236406 0 0 0
317 2 20.051776983846516 24.138205474287737 2.1123632050158467 0 0 0
295 2 20.066289519859932 21.40769016589714 2.0676748591819574 0 0 0
29421 3 1.6336660654100021 26.11208326693383 2.0952844444413086 1 0 0
29426 4 4.302882037237136 26.944091219674974 2.0977684212098784 1 0 0
303 2 6.891921733796315 25.03950151167181 2.053192888289807 0 0 0
330 4 6.9139992660532865 27.825543547794496 2.1050953298459434 0 0 0
305 2 9.503060246028296 25.95199714613861 2.078623127105002 0 0 0
333 4 12.111991167989114 26.859642570420828 2.1075332803455558 0 0 0
310 2 14.780054647251973 25.029806342289685 2.097700665195674 0 0 0
336 2 14.80526973166281 27.797448323994242 2.1416399694497805 0 0 0
314 4 17.4276316466311 25.966294694648766 2.1178405840280967 0 0 0
342 4 20.04692224251359 26.868698315464236 2.142622929383044 0 0 0
29423 2 1.7401595299760277 28.90929950641897 2.2411930977142998 1 0 0
31634 3 1.616791801456876 31.681911266488797 2.2297675434347406 1 0 0
31637 2 4.201157068083987 32.486999213810314 2.122445734588732 1 0 0
29429 3 4.343660037885216 29.776233813666934 2.181661706912277 1 0 0
2648 4 6.889387603225299 30.62136044348038 2.13526381573282 0 0 0
2646 2 9.511071114913316 31.507488370542966 2.1740496416283173 0 0 0
327 2 9.522058583664291 28.71318574586511 2.1290575084258454 0 0 0
335 2 12.172137566347983 29.630630981128082 2.1466937328388793 0 0 0
2652 2 12.169242044956974 32.40627842268384 2.1906882781208172 0 0 0
2655 4 14.846222218480934 30.564079422925513 2.17115386132945 0 0 0
337 2 17.429462933462677 28.713270171951354 2.1578786363253633 0 0 0
2657 2 17.427877147712255 31.460403001635065 2.1879576672782104 0 0 0
2662 2 19.996919043582633 32.372831615390275 2.1951685646726387 0 0 0
341 4 20.022954998054605 29.617215708621295 2.172082413984864 0 0 0
29277 1 2.1851432880824646 0.11284839234927992 4.091154363374422 1 0 0
29441 1 0.9092419122732439 0.9968599394399793 6.320703619010598 1 0 0
29459 1 3.6786633037462724 1.8824807055332826 6.512332231325182 1 0 0
29454 1 0.9248982869532 3.785273868063505 6.2949090785894795 1 0 0
29283 1 4.91085949542651 1.044437149199814 4.241211920501303 1 0 0
193 1 7.585607840781329 2.001796929011269 4.3637767499551945 0 0 0
29461 1 6.361830074256895 2.8209515895612043 6.5974360864254695 1 0 0
29444 1 6.333688944341065 -0.03003423217161271 6.695696907840691 1 0 0
350 1 9.008446869694609 0.8885338764872439 6.795990300085048 0 0 0
362 1 11.706899210907476 1.845130486182903 6.908978654651805 0 0 0
195 1 10.298856821638163 3.0118142018532796 4.391584590690653 0 0 0
177 1 10.288038483515097 0.06390608417531819 4.4513865827451236 0 0 0
361 1 9.021580881907493 3.78102431589108 6.718468038883713 0 0 0
180 5 13.038881452110543 0.9609255837765853 4.559785236827665 0 0 0
202 5 15.970317349315982 1.8665392550182152 4.54650630272081 0 0 0
363 5 14.429687402137873 2.807427770290328 6.9590266970797 0 0 0
353 5 14.5009258551898 -0.21532967887686105 7.031191166300756 0 0 0
356 5 17.388872197585535 0.7369082492323057 7.03869544976257 0 0 0
203 5 18.857094618814802 2.896394604511231 4.417810211729653 0 0 0
365 5 17.334119192194702 3.763355312304716 6.887770618819349 0 0 0
187 5 18.8985558236289 -0.07787347225210946 4.521366976501992 0 0 0
29472 1 1.0387980670153076 6.642376925387429 6.304602617985241 1 0 0
29460 1 3.7161917883367246 4.749012832910613 6.434381903433117 1 0 0
29475 1 3.7970764927230607 7.574923246122264 6.36206684353026 1 0 0
29326 2 5.075135350588008 6.711473613229778 4.113354446038926 1 0 0
212 2 7.825571053036795 7.6178547724343435 4.128533526344764 0 0 0
194 1 7.712075864290116 4.854405360722936 4.199514438562155 0 0 0
29302 1 4.971136018527952 3.890976003221773 4.164589599404285 1 0 0
29477 1 6.436250404149827 5.698721608780141 6.455095120218481 1 0 0
370 1 9.157870788716671 6.726177628182761 6.500092436644378 0 0 0
213 3 10.372694572550401 5.819165837789693 4.2761920064217716 0 0 0
364 1 11.705798564698739 4.8485850546478515 6.748867000496454 0 0 0
373 3 11.793750686254269 7.6487941660811005 6.583558438509973 0 0 0
197 5 13.026829462170612 3.987097241457378 4.408961073602269 0 0 0
217 3 13.08800807233738 6.900323374849455 4.262298167776303 0 0 0
374 5 14.41774644234635 5.84160016566925 6.766953391232611 0 0 0
222 5 15.935187473840877 7.820089746136372 4.257183546252474 0 0 0
201 5 15.985790755125821 4.845362870896753 4.346424584569117 0 0 0
376 5 17.30971912937043 6.790665519695404 6.775390352820511 0 0 0
224 5 18.836750669711314 5.883255886370757 4.339869539475957 0 0 0
29474 1 1.155524239140626 9.445365912069922 6.267725600870927 1 0 0
29493 2 3.902762734288179 10.315152700898722 6.317153825984215 1 0 0
233 2 7.901933631523307 10.36431208721953 4.115095910365386 0 0 0
372 4 6.4554746091713096 8.529504020086575 6.341521111924268 0 0 0
383 2 6.5943575223984 11.271619066556713 6.330341267406416 0 0 0
215 4 10.59808626577381 8.563110529406845 4.169919971647963 0 0 0
235 2 10.618027014479459 11.304605791932625 4.14947240840492 0 0 0
371 1 9.21026717305229 9.43744536841671 6.40110767170403 0 0 0
385 2 11.9810587802759 10.373310384356747 6.51613395413824 0 0 0
243 3 15.918953786825572 10.583625249556732 4.180981174626948 0 0 0
218 4 13.2404547471216 9.490093602555431 4.218767427734385 0 0 0
375 3 14.516144401248262 8.76980728951003 6.532286105117041 0 0 0
388 4 14.709333538683762 11.384809440096259 6.531121098521878 0 0 0
223 3 18.79949115536148 8.816519352156629 4.204917788013151 0 0 0
387 3 17.336121463300458 9.665986766163533 6.559937136622259 0 0 0
245 4 18.7107173986491 11.444540656610984 4.259265702739088 0 0 0
29489 1 1.2564129203510337 12.158314769113039 6.2450546628121035 1 0 0
29508 2 1.3219987457911835 14.896870281560217 6.271466584274112 1 0 0
234 4 7.960697312809242 13.102221977514283 4.1301472591898065 0 0 0
29513 4 4.102584677215523 15.80464724559201 6.29362292546892 1 0 0
29495 4 4.004158961324407 13.094586839088763 6.298259558025352 1 0 0
29349 4 5.26694982029776 12.17228547887016 4.084242793555654 1 0 0
29370 2 5.341209771990362 14.91899696321415 4.087964396133372 1 0 0
397 2 6.6650203072939656 14.010173321357794 6.350121079013301 0 0 0
255 4 8.027714545767052 15.849790496803637 4.155991717536332 0 0 0
259 2 10.642348770430745 14.053798529892847 4.167870908228099 0 0 0
382 4 9.300543712089464 12.180361602946137 6.4232851472377215 0 0 0
394 2 9.350283794980372 14.952392904482213 6.416059643217244 0 0 0
398 4 11.991097715904937 15.91573716142866 6.478867786569567 0 0 0
386 2 11.996244571873975 13.156177953894888 6.456614502303003 0 0 0
238 2 13.337010853935693 12.220968207565976 4.192928374914944 0 0 0
262 2 13.34111909920413 14.985539998338924 4.224700017005126 0 0 0
399 4 14.733430099583682 14.070358479065009 6.51684836294582 0 0 0
244 2 16.04595997780141 13.20198577042908 4.220890269441445 0 0 0
267 2 16.061397122982015 15.944461893733804 4.234577894848867 0 0 0
269 4 18.739002131525453 14.119668536571442 4.222966962020659 0 0 0
389 3 17.359560774425294 12.406123797325186 6.412779333020315 0 0 0
401 4 17.38799322455044 15.01528390014626 6.4923363269359 0 0 0
391 2 20.065906523549856 13.227599277111587 6.487719412146374 0 0 0
403 2 20.08564203458296 15.966587937244666 6.5296115035389 0 0 0
29368 4 2.6768212930652155 16.721105438499457 4.086945138733348 1 0 0
29390 4 2.8375842030726655 19.481313791929853 4.083437198491113 1 0 0
29388 2 0.05322800485137325 18.54042951155138 4.067143694636423 1 0 0
29509 1 1.4187904506474738 17.643294440586168 6.293991380971569 1 0 0
29371 2 5.395886762643781 17.66395279586578 4.130579230331498 1 0 0
29527 2 4.094050297909517 18.57298772002518 6.346903425291437 1 0 0
396 4 6.7199213631021255 16.769947429342032 6.3964474739431845 0 0 0
409 4 6.798473156997594 19.516015160656654 6.398200810031245 0 0 0
281 2 8.07133237456138 18.60586501748046 4.182374580819748 0 0 0
260 4 10.686862955002598 16.793037965758245 4.196409145165025 0 0 0
284 4 10.71373799055595 19.529700468812106 4.2284554877577865 0 0 0
395 2 9.393652490106774 17.7108018705088 6.426113998568108 0 0 0
410 2 12.080005711745917 18.656676694950782 6.478442352515092 0 0 0
263 2 13.374076389344253 17.74612841507872 4.228006400482696 0 0 0
400 2 14.714170581313356 16.850201479966636 6.487447706867388 0 0 0
412 4 14.784090436475925 19.627908041848634 6.5305965868681115 0 0 0
290 4 16.083216142523625 18.723603279448643 4.261337122013506 0 0 0
402 2 17.399985647130517 17.798029348988088 6.516117642966874 0 0 0
270 2 18.737303534616252 16.84867294756064 4.251121928506249 0 0 0
292 4 18.745587462897795 19.609476072412505 4.285239432455627 0 0 0
414 4 20.06970662483981 18.72738267051606 6.494933596740229 0 0 0
29389 1 0.2551633133142015 21.38787129418456 4.212599455535825 1 0 0
29409 2 2.8883250048689475 22.32991029999467 4.235731543890754 1 0 0
29537 4 1.6397269613439491 23.377469415179977 6.518054942017827 1 0 0
29524 1 1.5086678110745206 20.48346951274134 6.369237600937357 1 0 0
29407 4 0.3164119380718198 24.275304445692413 4.357085148191648 1 0 0
29411 4 5.542177145212745 23.242619548561887 4.256840871865398 1 0 0
29528 2 4.183618609602206 21.428637665862016 6.462702736531428 1 0 0
29392 4 5.472475507412028 20.446416135011695 4.188552682969029 1 0 0
420 2 6.861231485113807 22.34940900914121 6.454058597747964 0 0 0
29539 4 4.279011513773733 24.258379378848993 6.511792008901826 1 0 0
282 2 8.13138767836586 21.381469443717204 4.230718112965207 0 0 0
302 4 8.185457050178472 24.155498740284216 4.288412500500179 0 0 0
408 4 9.456969085780415 20.481402942588154 6.4739897848860295 0 0 0
418 4 9.507609733932847 23.255106025308887 6.524570407987327 0 0 0
306 2 10.788713321263273 22.31677007769267 4.2741694985000915 0 0 0
411 2 12.124013081252862 21.43696156565156 6.51616655293378 0 0 0
422 4 12.144354463804355 24.200423705565314 6.557274462953821 0 0 0
286 2 13.424545244799614 20.506543325317775 4.275224377114194 0 0 0
309 4 13.454352905088406 23.243859379025153 4.313727374321994 0 0 0
423 4 14.812748962242187 22.359435652442674 6.55233072243178 0 0 0
291 2 16.101488899815603 21.436494779290236 4.3014606091177345 0 0 0
313 2 16.119912031288468 24.168539653656893 4.351336131761756 0 0 0
415 2 20.072065140111324 21.47969687231355 6.596607761705281 0 0 0
413 2 17.43198907385336 20.5518885238091 6.550767853811325 0 0 0
425 4 17.45763429366892 23.311604464073785 6.607890688170978 0 0 0
315 4 18.75122017739754 22.349736305306628 4.335064353056248 0 0 0
426 2 20.084607941737023 24.21101454498066 6.643745864885027 0 0 0
29424 4 0.30809398717152636 26.99073845191109 4.364811685534811 1 0 0
29552 2 1.6769784648446089 26.140489049818278 6.594161991059348 1 0 0
29412 2 2.9491408625386994 25.160733174588884 4.2742336712752005 1 0 0
29427 3 3.038912827483314 27.86685752564753 4.452146353217256 1 0 0
29556 4 4.350537180394227 27.046008188391433 6.628341690421589 1 0 0
29413 2 5.599662646856314 26.035473232666767 4.326577012533259 1 0 0
419 2 6.914889061919827 25.13396415236949 6.539235837249526 0 0 0
431 4 6.947700729999813 27.91326257673703 6.599040551782627 0 0 0
328 4 8.21504442204048 26.94280371495008 4.33918766627783 0 0 0
421 2 9.543283345433682 26.042103082322868 6.567923420996251 0 0 0
307 2 10.821722739453646 25.076222262997717 4.322353859759147 0 0 0
332 4 10.848637413980072 27.84281738277451 4.375205524849678 0 0 0
433 4 12.161642413366838 26.955691144452366 6.6249448673809175 0 0 0
331 2 13.477111570684912 25.989430260461035 4.353763063345329 0 0 0
424 2 14.822958620349832 25.11577188937492 6.609125545270859 0 0 0
436 2 14.849355069940115 27.893892342195276 6.678998577642788 0 0 0
338 4 16.167839076037513 26.94272830912416 4.396597480976826 0 0 0
435 4 17.469663293036934 26.05041980351723 6.657268571641382 0 0 0
316 2 18.753064171614827 25.086723647411294 4.382003590915763 0 0 0
340 2 18.75749890748617 27.835656287456523 4.420798112096979 0 0 0
438 4 20.08542396605555 26.952140157682322 6.684641931666363 0 0 0
31638 4 2.998654438432578 30.76428385896846 4.452830338277528 1 0 0
29553 2 1.6752791263913482 28.929378309099313 6.582392484345004 1 0 0
31756 2 1.6862399726555724 31.731655139263935 6.677342525621675 1 0 0
29425 3 0.38464159825973104 29.907607448756604 4.4758330886460715 1 0 0
31635 2 0.2717458548389021 32.6173507134784 4.417194758478326 1 0 0
29555 4 4.308922987430962 29.83428637223412 6.66902950189406 1 0 0
29428 2 5.573905035795703 28.816339184460425 4.384346147719344 1 0 0
31639 2 5.58760104602841 31.62171916114205 4.410306077327434 1 0 0
2779 4 6.907469645999736 30.698837297596896 6.656224868725699 0 0 0
2647 2 8.22695201093002 32.5063316503633 4.4251089402752015 0 0 0
329 2 8.222586306774842 29.709744934168786 4.388188628684942 0 0 0
432 2 9.566349711671625 28.819118343177085 6.633488350374719 0 0 0
2780 2 9.58435089047034 31.615288259758067 6.690594011506233 0 0 0
2650 4 10.86980793141741 30.62384058777616 4.417216092544058 0 0 0
2782 2 12.234752387863775 32.527602051771204 6.718166934631302 0 0 0
434 2 12.218925456535686 29.741567831703932 6.6696139153914755 0 0 0
2653 2 13.520867427515538 31.535354672427534 4.46191197875701 0 0 0
334 2 13.507511434200357 28.761680185290718 4.410312612698401 0 0 0
2784 4 14.896082985798763 30.676385526526122 6.7127440748866425 0 0 0
339 4 16.14717683784393 29.683085828555605 4.437481634058779 0 0 0
2660 2 16.141025001889385 32.44263242699538 4.4765971653785925 0 0 0
437 2 17.47566518074901 28.81024858268708 6.700540475087102 0 0 0
2785 2 17.474697395344155 31.578627144584722 6.731584369776833 0 0 0
2661 4 18.74467237908306 30.593847585806714 4.452764478799379 0 0 0
2786 2 20.049300310739145 32.48819439659554 6.7419083245188585 0 0 0
439 4 20.069946609844433 29.715280563088882 6.718788726427602 0 0 0
29568 1 2.355765957501819 -0.1147427809916166 8.805368228903282 1 0 0
29570 1 1.0575403559289438 0.7310668075887173 10.909057751842635 1 0 0
29590 1 3.8074606295776263 1.5899672406728917 11.172391300530712 1 0 0
29457 1 2.428160308505828 2.7516641290311306 8.702613773798555 1 0 0
29588 1 1.1094217604905097 3.571555173920433 11.016585663385845 1 0 0
29571 1 5.076070965601781 0.7749424071838555 8.95532402996691 1 0 0
461 1 7.764570468506654 1.7057396894348833 9.0464824408805 0 0 0
29592 1 6.4785087189009545 2.5389247055659143 11.28257732880016 1 0 0
29589 1 5.102425778155157 3.6483187322825867 8.846385955428484 1 0 0
444 1 9.173582448530667 0.6341714706867823 11.46944342951785 0 0 0
464 1 10.427132067309005 2.686326859458082 9.161951021214755 0 0 0
463 1 9.176802547502568 3.5150815815291554 11.393746071589117 0 0 0
467 1 11.876189262815881 1.6241376955908267 11.588762805729102 0 0 0
445 1 10.458900665712022 -0.19555930213241313 9.226198984092468 0 0 0
449 1 14.644143436754176 -0.24691657736984426 11.674457973482323 0 0 0
446 1 13.140471044445757 0.7829920370550888 9.32151613149639 0 0 0
473 1 15.881279161152733 1.7118751201763325 9.31511107445233 0 0 0
469 1 14.563585244991458 2.597983432914784 11.683240519360151 0 0 0
466 1 13.070635111060497 3.7041177937187038 9.268328182721797 0 0 0
475 5 18.682196690320495 2.605415354889754 9.411640749501816 0 0 0
452 1 17.366777039652856 0.6874309448316915 11.745271965400077 0 0 0
474 1 17.267839319944738 3.5610126585596915 11.723968219959229 0 0 0
453 1 18.85636113862063 -0.25083460704945004 9.346222412800923 0 0 0
1366 5 17.36850432542681 29.03047434047657 30.31136733381006 0 0 0
29603 1 1.156325018082086 6.355612398311814 11.000354006928237 1 0 0
29458 1 2.4499406731754463 5.570062838525357 8.662427802726421 1 0 0
29591 1 3.8341706928837533 4.478420946601538 11.111812754194016 1 0 0
29607 1 3.8869880033426725 7.355045101480709 10.980028081091113 1 0 0
29606 1 5.167495943871744 6.544884292372295 8.70679346261283 1 0 0
465 1 6.534567394710532 5.427147845943692 11.152003221820989 0 0 0
462 1 7.776456548707099 4.616679597989992 8.924570980856352 0 0 0
484 1 7.814015008918955 7.497764701250456 8.769760629050953 0 0 0
485 1 9.185300708832324 6.425845813425737 11.274706362130278 0 0 0
471 1 10.41181335097152 5.589386385377045 9.067431807694046 0 0 0
468 1 11.833120975291887 4.505200625975084 11.525540782748836 0 0 0
490 1 11.7971165294892 7.4052415254340485 11.430300910673003 0 0 0
489 1 13.075365224610922 6.650036691464087 9.12554301805199 0 0 0
472 5 15.794557385168227 4.610177711569357 9.339260351539187 0 0 0
470 1 14.45192214332453 5.518207889279276 11.644503160888615 0 0 0
493 5 15.760987238877831 7.66536330210709 9.195852532390937 0 0 0
499 5 19.96328221843831 7.5033958233246825 11.68625425537495 0 0 0
497 5 18.650507715497728 5.65428907047337 9.286998937305805 0 0 0
494 5 17.141112845294913 6.455595499502822 11.759958475122046 0 0 0
478 5 20.03531868618453 4.446591217871616 11.813176227372368 0 0 0
29604 1 1.1667780720853258 9.251009473546327 10.91126606037709 1 0 0
29605 1 2.494241729744621 8.403246440700707 8.627263913075097 1 0 0
29492 1 2.586081205742813 11.216786741512614 8.59952514330701 1 0 0
29619 1 3.912901508647469 10.207113878128425 10.95192840750409 1 0 0
29476 1 5.218962765927626 9.362208440992916 8.645460305166017 1 0 0
487 1 6.564578418005765 8.315919240494068 11.058196492846125 0 0 0
507 1 6.610947390348823 11.165762593742066 10.988077084039213 0 0 0
505 2 7.914644317048381 10.266921373062258 8.663317038861925 0 0 0
486 1 9.24482090222781 9.330110406780811 11.086375668549747 0 0 0
488 1 10.53897816747369 8.472512459347477 8.823087335027216 0 0 0
510 1 11.906155829984144 10.270356973266846 11.145325115074302 0 0 0
508 4 10.59337002778548 11.286676712287402 8.699554762089486 0 0 0
506 1 9.279402819721277 12.07470055329099 11.063960217545237 0 0 0
491 3 13.209175529636545 9.443790155316687 8.912441240246075 0 0 0
514 3 15.925269317553733 10.548937237892419 8.853038665240884 0 0 0
512 3 14.524153847125987 11.2303178174224 11.217204594143256 0 0 0
492 1 14.419281663769793 8.462008799597715 11.523173159436901 0 0 0
496 5 18.57340191909656 8.72842040677734 9.189216623547026 0 0 0
518 5 19.868992610919683 10.549270774892047 11.597432335286548 0 0 0
516 3 18.788363032119346 11.563385674444435 8.632612326638958 0 0 0
495 5 17.021252390401997 9.560308020511549 11.806947480289567 0 0 0
29618 1 1.2200142510319503 12.041312538912623 10.917412512466242 1 0 0
29630 1 1.2742817834432536 14.826725305853484 10.924646221558355 1 0 0
29512 1 2.6687159610777766 13.959447166160663 8.583174636778304 1 0 0
29632 1 4.018156423560915 15.744149568389734 10.947269852075792 1 0 0
3693 5 18.641674000020565 30.817291271945294 32.43762032026465 0 0 0
29494 4 5.286567775055726 12.108959985756565 8.558263046148328 1 0 0
29620 1 3.961523689382832 12.972244988438346 10.93194607504504 1 0 0
29515 2 5.369643206032457 14.8598321097757 8.618452928663972 1 0 0
527 1 6.665857080864113 13.899091434704012 10.966899567616478 0 0 0
384 2 7.967083003946078 13.084999040429855 8.662457782403745 0 0 0
524 4 8.060313822483945 15.872113967365888 8.61326406430458 0 0 0
525 1 9.356772433370528 14.87937615848658 10.987767270868325 0 0 0
529 2 10.693464314936733 14.043799788722309 8.729158506504195 0 0 0
511 1 11.995189314067936 12.985871457204663 11.099577165980765 0 0 0
533 1 12.095158710229319 15.88974326346639 10.947612080652213 0 0 0
531 4 13.380447642070093 14.97100742567159 8.645766446464831 0 0 0
509 2 13.341453021323238 12.219877691515102 8.788175042428609 0 0 0
535 1 14.828105119151264 13.989908009220635 10.96573040604257 0 0 0
513 3 16.008975177585324 13.279156869549695 8.648510434758228 0 0 0
536 2 16.073612021906225 15.971258399035719 8.750433477174713 0 0 0
515 3 17.36064998902712 12.265740189666472 10.879743460856476 0 0 0
537 3 17.47840447926916 15.054054735054432 10.904240761086255 0 0 0
539 4 18.75282332803596 14.195140033938129 8.694037277586071 0 0 0
29511 1 2.7313578568558174 16.695667466010164 8.585128652362283 1 0 0
29646 1 2.801515684310618 19.53485210715946 8.679867826866928 1 0 0
29631 1 1.3307929795912339 17.604835581675317 10.958871108567195 1 0 0
29525 1 0.029333572122282405 18.559299205214202 8.640013154270576 1 0 0
29648 1 4.080970703383315 18.544881720679026 11.002109299859466 1 0 0
29514 2 5.428214647645317 17.6537538740822 8.63998996750837 1 0 0
528 1 6.7647740661955185 16.680951200315512 10.962887581988282 0 0 0
553 1 6.862848297765373 19.55861254021155 10.996478602641211 0 0 0
550 2 8.141119129831093 18.61314818552913 8.698914306396391 0 0 0
526 3 9.429465753572392 17.64267439723141 10.953021041430913 0 0 0
530 4 10.693989555167635 16.811876124073326 8.684919802074633 0 0 0
554 4 10.790009656027014 19.520032365121168 8.703163812004961 0 0 0
556 3 12.154564374989423 18.640745206405327 10.956799702574731 0 0 0
532 2 13.419352136678008 17.729964811770035 8.76438331255069 0 0 0
534 3 14.773290957496503 16.789157035121164 11.029276839330528 0 0 0
560 4 14.876303177601658 19.53829472456682 11.092717608018761 0 0 0
558 4 16.05543644069038 18.734628766775696 8.788996118869443 0 0 0
538 3 17.487972449937317 17.81292518844668 11.043325141072291 0 0 0
540 2 18.7856358491017 16.98468904318301 8.821637603174752 0 0 0
562 3 18.72210254902894 19.696727137798312 8.723950978613862 0 0 0
29645 1 1.4084913871725213 20.423606972868573 11.029161029089893 1 0 0
29666 1 1.527476186197309 23.29230113907524 11.039674403170997 1 0 0
29667 1 2.8968233719731686 22.37621259291248 8.746637173041306 1 0 0
29664 1 0.30980801177636225 24.272493629334342 8.833243858534006 1 0 0
29526 1 0.14048396321428094 21.394872891759714 8.722644904508124 1 0 0
29647 1 5.54803826419271 20.487209882533136 8.662181010113805 1 0 0
29649 1 4.196727127393383 21.42196901737101 10.9919371528187 1 0 0
29668 4 5.601272737625679 23.33055342339194 8.72090040455931 1 0 0
574 3 6.891508526533802 22.35859607512722 10.927822322503467 0 0 0
551 2 8.174958908780132 21.44008993902024 8.704744653219636 0 0 0
571 4 8.210936785545995 24.225105886986995 8.781463990830407 0 0 0
573 4 9.470924452820972 23.3655797716201 11.030539225075946 0 0 0
552 3 9.500013826181906 20.52149052341734 10.885269680869813 0 0 0
577 2 10.830636737970497 22.363559707227843 8.783122910606952 0 0 0
557 3 12.196394974058899 21.461251353318303 11.001788292654378 0 0 0
579 3 12.181472114668447 24.278298311894197 10.906922543397704 0 0 0
576 4 13.517784727395101 23.299987511068835 8.731408831164131 0 0 0
555 2 13.478873079766087 20.525994764254268 8.809718957340069 0 0 0
580 3 14.957790877959555 22.334804510040712 10.971634994835005 0 0 0
581 2 16.178237444800924 24.242542452465006 8.883450210752093 0 0 0
559 2 16.162616202073846 21.48205038820885 8.81222799902487 0 0 0
583 4 17.56657041940584 23.3820724122164 11.18064067836375 0 0 0
561 2 17.597318081806606 20.548868274462997 11.046489215124785 0 0 0
584 4 18.821315462264693 22.4705677843847 8.907696209280234 0 0 0
29686 4 0.3654663762795714 27.154688065080048 8.921511216163431 1 0 0
29685 1 1.690417612368725 26.272988819273625 11.1596241676168 1 0 0
29669 2 2.9751379342538233 25.177566112427083 8.852021340032575 1 0 0
29692 2 3.0128261897175066 28.029316843705594 8.882821057008162 1 0 0
29670 1 4.374849473854595 24.306827489018133 11.048346180335033 1 0 0
29693 4 4.358422530356893 27.159219354048126 11.164569175626697 1 0 0
29690 2 5.653607619108547 26.12683195010641 8.832872229083462 1 0 0
572 3 6.9640858576976825 25.16859183191049 11.001499648915384 0 0 0
596 3 7.004584833889821 27.997011316537595 11.033195411558788 0 0 0
594 4 8.304273358028983 26.98613327098109 8.817165724378913 0 0 0
575 3 9.585250876670079 26.149740865005004 11.036775415697958 0 0 0
578 2 10.839507762601487 25.159780953956155 8.811949038061819 0 0 0
598 4 10.91170106270253 27.947009904551372 8.878599831757997 0 0 0
600 4 12.207770109092186 27.045588781362355 11.160042345564138 0 0 0
597 2 13.527341082238856 26.075338625197805 8.87914229887272 0 0 0
582 3 14.943123472475303 25.227474515853412 11.105987556321043 0 0 0
605 2 14.928893303472407 28.001242511404147 11.21586536520663 0 0 0
603 4 16.22161423337226 27.031921951868654 8.930204235962584 0 0 0
602 4 17.535598762885797 26.133888968548163 11.23145059756112 0 0 0
585 2 18.80562536315 25.17587402079833 8.927954292285273 0 0 0
607 2 18.810271230292802 27.931823641901403 8.967135650183542 0 0 0
29689 4 0.446609690556342 29.87813942064631 8.887354553950264 1 0 0
31895 2 1.7198868009255284 31.73811628068372 11.149400793090928 1 0 0
31898 4 3.0342151320720268 30.79009024558818 8.883282362505721 1 0 0
29688 3 1.6845885009462056 28.998062259505698 11.117796952656928 1 0 0
29694 4 4.338387357912647 29.852535728745938 11.118912634766824 1 0 0
31899 2 5.665231883492428 31.702116896638497 8.916460187104368 1 0 0
29691 2 5.659062986529148 28.909947909165723 8.869919121173066 1 0 0
2904 4 6.950423859622047 30.794875471685387 11.197917761341383 0 0 0