LAMMPS data file via write_data, version 2 Aug 2023, timestep = 5034060, units = metal

38640 atoms
2 atom types

-0.6343359833700372 79.50790570336802 xlo xhi
-1.0377669270005634 129.31344973696835 ylo yhi
-0.5163027899066961 64.26905021542815 zlo zhi

Masses

1 92.90600000000001
2 47.88

Atoms # atomic

398 1 0.2565060181578347 1.8555927934481382 1.4779712052479417 0 0 0
386 1 2.8546005074420915 -0.22496515466028388 1.5954344148495638 0 0 0
401 1 2.8571588106109926 2.8130465723741223 1.5319482494307428 0 0 0
383 2 0.21567673338030371 -0.9631156280300079 1.4367574655779372 0 0 0
382 2 5.502441858522161 0.9119371807557767 1.4657893643876367 0 0 0
389 2 8.241347769742555 -0.9142991341638091 1.455048967891161 0 0 0
404 2 8.256035538722214 1.9684041655000177 1.4729750189986444 0 0 0
392 2 10.925396149934661 -0.00674014742912611 1.43702164144485 0 0 0
407 1 11.127318123514087 2.7600637009972018 1.427548520528254 0 0 0
388 2 13.632649899311167 0.9755984157440717 1.4355224842149628 0 0 0
393 1 16.108631716100046 -0.7886268388515025 1.3873304668672692 0 0 0
408 2 16.38044047532967 1.9215720082894487 1.4246337721005033 0 0 0
395 1 19.01519239663284 -0.0520619917336091 1.3580509406073937 0 0 0
410 1 18.977431982987465 2.972499972833388 1.360803430296982 0 0 0
416 1 2.935888729261281 5.737267401564223 1.422348988855715 0 0 0
413 1 0.2058551331576031 4.744821169515793 1.5142580372306258 0 0 0
397 1 5.598217974667982 3.6788869979595256 1.4296922163844352 0 0 0
412 1 5.637891004746508 6.616718787614654 1.3860141691896535 0 0 0
422 2 11.010028398789183 5.642948006021238 1.3805399801363254 0 0 0
419 1 8.425019283704735 4.8215818032694635 1.560365586589378 0 0 0
403 2 13.604101079167505 3.872967278372748 1.447514793034216 0 0 0
418 1 13.693157429988565 6.69503263138279 1.2917190183033762 0 0 0
425 2 18.96578791342421 5.709027675584793 1.406909681871584 0 0 0
423 1 16.307432366640406 4.729470586229967 1.494930852704826 0 0 0
431 2 2.9332148139775396 8.48848339991129 1.396566060353391 0 0 0
428 1 0.2473321100558298 7.501922944894951 1.2915108010582455 0 0 0
443 2 0.1567525441714304 10.298215446023926 1.6137087207092913 0 0 0
427 1 5.46078168134537 9.674419050089753 1.3974437634141157 0 0 0
434 2 8.207344921621342 7.569991693643454 1.392113109492334 0 0 0
437 1 10.778223530927916 8.367994547607749 1.543346786166011 0 0 0
449 2 8.241275346762267 10.418855535571002 1.4649129119123077 0 0 0
433 2 13.573801495539364 9.39924259409759 1.4925499754756206 0 0 0
453 1 16.175441534937576 10.237203117980156 1.2707465295811444 0 0 0
438 2 16.3501434578622 7.537218233291274 1.4913244207674041 0 0 0
440 1 19.06310643609828 8.434221494291366 1.4803005046712414 0 0 0
446 2 2.8845524673520053 11.375600327222894 1.4333818439713841 0 0 0
458 1 0.3466831633118557 13.03231491159265 1.306270533797164 0 0 0
461 2 2.8948754877830782 14.249350151202927 1.4401344280195907 0 0 0
442 2 5.629250951033047 12.339835232016487 1.4900294299503656 0 0 0
457 1 5.617733407261365 15.182075347382886 1.5249736179531546 0 0 0
452 1 10.8713177337909 11.371353200151514 1.6026307157016748 0 0 0
467 2 10.873512682420401 14.164065990407545 1.4870828272377288 0 0 0
464 1 8.207464897770821 13.231502067854569 1.4935212081349056 0 0 0
448 2 13.575166154742355 12.242289516200334 1.5052031030379927 0 0 0
463 2 13.586428493244648 15.108091068977707 1.5412241100503832 0 0 0
455 1 18.943273616615304 11.349347466362756 1.4036481985261335 0 0 0
468 1 16.115573907110473 13.315555438647518 1.3716425815787057 0 0 0
470 1 19.010214443361665 14.265659045869926 1.4480656326429862 0 0 0
473 2 0.26447763549915454 16.089863814179544 1.4612766114163915 0 0 0
476 1 2.9030021873772003 17.002212511701604 1.4457192505022918 0 0 0
488 1 0.24383885268573502 19.032682581040927 1.6016208187551215 0 0 0
472 1 5.734115059352424 18.148667948570033 1.2624034004502482 0 0 0
479 2 8.278515441220174 16.0680679206178 1.4458003002536337 0 0 0
494 2 8.333939047809016 18.92942190729251 1.4518755436666817 0 0 0
482 1 10.982407490203219 16.942354878462634 1.4506314137119074 0 0 0
478 2 13.559829503175319 17.983338296302716 1.5777220265218057 0 0 0
485 2 19.011253128077268 17.0484530815728 1.5006090876402365 0 0 0
483 2 16.30667449028379 16.055723846488466 1.5498834810498592 0 0 0
498 2 16.261254796990787 18.924280898566867 1.519581561983701 0 0 0
503 2 0.17801766116381018 21.736265859045137 1.4265309421966472 0 0 0
491 2 2.909985998529646 19.80507285729097 1.4536900061369542 0 0 0
506 1 2.7823033381708666 22.52876999859469 1.5798107482496129 0 0 0
487 2 5.564669904014889 20.831656635000122 1.459605776063369 0 0 0
509 1 8.148156952309686 21.65863061834862 1.2620883440720165 0 0 0
497 1 11.05183856934035 20.009281163697555 1.2946792629854678 0 0 0
512 2 10.88674882824528 22.70630300496767 1.492862321473494 0 0 0
493 2 13.636544709907225 20.83343050756719 1.5444874170045375 0 0 0
500 1 18.944146778314938 19.91376069141639 1.492844489936757 0 0 0
513 1 16.33695346457077 21.791425523616045 1.4963246566806652 0 0 0
515 2 19.002296708507135 22.6816166041936 1.4992167166659307 0 0 0
519 2 2.8275778293834155 25.466904549828655 1.433932965996406 0 0 0
517 1 0.049608353802307714 24.546009629542812 1.4146717071888955 0 0 0
2798 2 0.15516143740334146 27.37711392520111 1.4380745386614688 0 0 0
502 1 5.610446446159076 23.64244027247561 1.395293462070532 0 0 0
2791 1 5.442004554585247 26.47276090464095 1.4762241595930772 0 0 0
523 1 10.936942946601475 25.53964307602744 1.4093245402621533 0 0 0
521 2 8.252429695943983 24.568472204797484 1.4236593666761541 0 0 0
2804 1 8.228428607388809 27.393735856114727 1.341053408005121 0 0 0
508 1 13.518188643764383 23.569632326695597 1.3415994906076414 0 0 0
2793 2 13.613069919949487 26.468352876256976 1.43137259494375 0 0 0
524 2 16.285640962933872 24.57443084910387 1.4870508830081848 0 0 0
525 1 18.96221452320159 25.47370749438673 1.4449497803463374 0 0 0
2808 1 16.40028887859978 27.468014568425954 1.6350873179864356 0 0 0
2816 2 2.851963122434399 31.159366461338657 1.4427750488097444 0 0 0
2801 1 2.78248359134393 28.437159336259292 1.5466818599309715 0 0 0
2813 1 -0.003989180389187025 30.30054937610481 1.4363140856074055 0 0 0
2797 1 5.506424845956443 29.400739953269586 1.4964472476951052 0 0 0
2807 1 10.9127158793895 28.45001778935537 1.423560617743913 0 0 0
2819 1 8.265145503142861 30.32367962621582 1.5271652503870825 0 0 0
2822 2 10.976419222126205 31.168141638200087 1.4019424368930733 0 0 0
2803 1 13.709638522379665 29.223908194799197 1.3714246956262672 0 0 0
2810 2 19.016975728608234 28.343756321069236 1.4327714916784298 0 0 0
2823 2 16.2986520436445 30.22350925684657 1.4702591945195551 0 0 0
2825 1 18.938487029230078 31.052959194983234 1.6553091457524682 0 0 0
384 2 1.5658662529157426 0.9576917015643838 3.766054826791051 0 0 0
561 1 2.7617773875833356 -0.1651538618331276 5.9825972246738175 0 0 0
573 2 0.19006498820268625 1.8877647144722445 6.081422779728103 0 0 0
576 1 2.769077913539699 2.831673581263396 6.118876584142535 0 0 0
558 2 0.2194432169056104 -0.9642126499090098 6.164911584909262 0 0 0
385 1 6.8523522903188105 -0.007082488223713954 3.6541485838672654 0 0 0
396 1 4.184292584524477 1.8413580780370784 3.7457438622331463 0 0 0
557 1 5.607403108731065 1.014472625547673 6.128272454482314 0 0 0
400 1 6.945615689301228 2.885622341657729 3.800766761071013 0 0 0
381 2 4.296121929710492 -0.9730416148614163 3.805918342505594 0 0 0
390 1 9.581751500610967 0.9541001532218987 3.709504358527993 0 0 0
567 2 10.948643750513622 0.0075496339086126955 5.9767472752780195 0 0 0
579 2 8.260761683928767 1.8984485519440872 6.031549659602726 0 0 0
582 1 10.941123692993333 2.8176582384412043 6.079306748574448 0 0 0
564 1 8.30763749600387 -0.9166232498182447 6.166968840101802 0 0 0
387 1 12.378242786534676 -0.7869339967962043 3.6093991657670945 0 0 0
406 1 14.870849626442938 2.7432937428721162 3.6166812066849365 0 0 0
391 2 15.021958660310748 -0.010133024367734602 3.773333743131294 0 0 0
402 2 12.253275473480635 1.936267911059894 3.7790805050623777 0 0 0
563 1 13.647078584743012 0.9579744912644497 6.063320798241212 0 0 0
570 1 18.974256075305284 -0.03581810457421789 6.006493184339391 0 0 0
394 1 17.644128882752153 1.006357433653327 3.735087868437777 0 0 0
583 2 16.316255622201464 1.880695727867221 6.03286156830553 0 0 0
585 1 18.98898446741499 2.9252468637630975 5.99825872161463 0 0 0
568 1 16.257664836033584 -0.8723250937952873 6.102086674380485 0 0 0
399 2 1.5480179371820435 3.801900953669803 3.7946687898562637 0 0 0
591 2 2.9114046107512315 5.662202162918282 6.0881504708663705 0 0 0
588 1 0.2694673903963225 4.800665276597765 6.099596315061522 0 0 0
414 1 1.5853455266711116 6.609626427904816 3.8290261439905704 0 0 0
415 2 6.867233036730762 5.66360331876955 3.721238152569109 0 0 0
411 1 4.230719763725299 4.743816648891683 3.8354983976734984 0 0 0
572 2 5.555721342979782 3.7715708171893754 6.074371325352432 0 0 0
587 1 5.606003774890612 6.521946014659993 6.13873190177282 0 0 0
405 2 9.642486263911215 3.725738459950354 3.7320145539826086 0 0 0
594 1 8.346873520012078 4.824581931117008 5.909865239150118 0 0 0
597 2 10.98587703213838 5.652940362590895 6.12354622442035 0 0 0
420 2 9.621742599712512 6.605622978121764 3.750550660573022 0 0 0
417 1 12.165104010380025 4.881026590110586 3.76431889735661 0 0 0
421 2 14.922063602657587 5.63101467440448 3.741096753100918 0 0 0
578 2 13.606635028313685 3.7713757422084124 6.022954247048435 0 0 0
593 1 13.71714994678049 6.562328703304097 6.132955520108541 0 0 0
409 2 17.66972191929894 3.762226820814185 3.7093046858601397 0 0 0
598 1 16.26092775655899 4.635440988572339 5.972630984869559 0 0 0
600 2 18.97420066624607 5.66680442144365 6.079747528640467 0 0 0
424 1 17.645062988192944 6.51761905452963 3.803594604560959 0 0 0
429 1 1.7541673392896018 9.622459567344672 3.5808663312255757 0 0 0
603 2 0.18093607225321964 7.559950164749757 6.121525507858986 0 0 0
606 1 2.8691077899628383 8.434257886801488 6.113631314746169 0 0 0
618 1 0.24631986377043483 10.243241902890796 6.122223877094713 0 0 0
426 1 4.296580284749797 7.594027726085931 3.7127252189284325 0 0 0
430 1 7.17843552520249 8.394668375748909 3.7672848834894626 0 0 0
602 1 5.615796006003628 9.525294724725606 6.037958208268743 0 0 0
441 2 4.338880517099967 10.397785203427192 3.778560640505605 0 0 0
435 2 9.640643672161024 9.49535499228153 3.790546382773983 0 0 0
612 1 10.830604743421295 8.34745775870154 5.925231567891898 0 0 0
624 2 8.254373558838857 10.403585787068577 6.136480463985359 0 0 0
609 2 8.23541187551493 7.561762302811802 6.139813164568581 0 0 0
432 2 12.339869110140777 7.57564935184312 3.7650789006742396 0 0 0
436 1 14.96526457488669 8.356003852712364 3.7718818060785235 0 0 0
447 1 12.308577991149788 10.338555387792544 3.702370947914618 0 0 0
608 1 13.7611387739332 9.543374058183804 6.276407793690964 0 0 0
439 1 17.628906042892613 9.45061862767088 3.812214915349908 0 0 0
613 2 16.32275797754542 7.547207413986433 6.067933880358851 0 0 0
628 2 16.32216221393188 10.451281738297986 6.03838562430735 0 0 0
615 1 18.978186136849494 8.474690957242414 6.079116443827529 0 0 0
621 1 2.907230764601146 11.416864050768153 6.007969255737985 0 0 0
444 2 1.5190539589537828 12.33749234070626 3.7828019776742883 0 0 0
633 1 0.06861143576253938 13.385505763697505 6.004912027299131 0 0 0
636 2 2.862134478452841 14.138802025553561 6.065694616247661 0 0 0
459 1 1.6572184840741095 15.218436315880966 3.8482303910181477 0 0 0
445 1 7.063938308752121 11.385209093844308 3.835210579290835 0 0 0
456 1 4.16600024663095 13.135101575074005 3.6299173109632465 0 0 0
460 2 6.847496871065749 14.209422873560948 3.7879663238347665 0 0 0
617 2 5.535988907302719 12.320988093449747 6.0542344198898155 0 0 0
632 1 5.37959847027202 15.246267389833347 6.029907735351169 0 0 0
627 1 10.792158100107615 11.362956385486559 6.065418903423708 0 0 0
450 2 9.624141109189768 12.35747088296936 3.804412344705385 0 0 0
642 2 10.873742172248328 14.132542718156012 6.0717011452467835 0 0 0
639 1 8.134419105828957 13.316442084955384 6.128450179771432 0 0 0
465 1 9.470885570054136 15.092883632205666 3.8103531725010646 0 0 0
451 1 14.965489081933379 11.265972068707395 3.7114840986250774 0 0 0
462 1 12.418088112580815 13.574421140401906 3.7604924863890155 0 0 0
623 2 13.485378543603039 12.153828095562183 5.862637671827287 0 0 0
466 2 15.119471653731058 14.009155840213273 3.8079240018403544 0 0 0
638 2 13.584199564901493 15.081360260961695 6.07568627181906 0 0 0
454 1 17.646887839637994 12.266296742932957 3.7528534240351497 0 0 0
630 1 18.958127324110883 11.443667756225958 6.20070383139862 0 0 0
645 1 18.96334742793705 14.279470827917706 6.207187837670207 0 0 0
643 1 15.950823058052912 13.258974906717052 6.357171400438569 0 0 0
469 1 17.622594459236183 15.094555511793912 3.815728611191093 0 0 0
474 2 1.5341290735812807 17.917196243558585 3.711439920924313 0 0 0
648 2 0.17448677573921764 16.101574040063756 6.061125802646777 0 0 0
651 2 2.903860339489053 17.03503095964519 6.08028215556987 0 0 0
663 1 0.45829628102072106 18.901685555831545 5.999096420338205 0 0 0
471 2 4.272070852478283 16.120710373875507 3.7031120704923426 0 0 0
647 2 5.621559419238682 17.982768964092735 6.066631666166115 0 0 0
475 1 7.013315290303847 17.102886964207936 3.730114994195373 0 0 0
486 1 4.088882176750249 18.959010643033608 3.893803059653583 0 0 0
480 2 9.605188507141255 17.945513761722776 3.8031476195995664 0 0 0
654 2 8.207423743680073 16.08246237950484 6.095414270848031 0 0 0
657 1 11.025245710614318 16.882024091675582 6.189163496617758 0 0 0
669 1 8.30663747935539 18.867023710859637 6.135567348829358 0 0 0
477 2 12.068543387712367 16.206034463705286 3.7969017709511 0 0 0
481 1 14.739422135082734 16.739882349499887 3.819373298533176 0 0 0
653 2 13.562461162760009 17.98056565198957 6.0518012241345405 0 0 0
492 1 12.174375744224877 18.95738954712676 3.849540064941355 0 0 0
484 1 17.600612672665193 17.927559911410505 3.7768105404628303 0 0 0
658 2 16.28996176616088 16.050315054880315 6.049341428853862 0 0 0
673 2 16.27776097007929 18.915761812197285 6.04059971241412 0 0 0
660 2 19.008606100949613 17.05185325921894 6.083586276983 0 0 0
489 2 1.5424988324747329 20.76788545856867 3.7777294385361846 0 0 0
678 2 0.22308222320563592 21.70215421923215 6.11917869271065 0 0 0
666 2 2.9211947134859915 19.90947245224199 6.16324708183878 0 0 0
681 1 2.831319033076203 22.622617618402142 5.885744315845435 0 0 0
490 2 6.882962437675309 19.838587475614332 3.787219618675284 0 0 0
501 2 4.241522349103455 21.738243564143943 3.7708678351334033 0 0 0
505 1 6.804751362883095 22.597256415282935 3.799442078132408 0 0 0
662 1 5.638934796219868 20.794254850497058 6.147655110110282 0 0 0
495 1 9.49082848753786 20.684631295000145 3.7727427008775156 0 0 0
684 2 8.254037719164813 21.714166758549883 6.0512369840647855 0 0 0
672 2 10.911393854589953 19.827867895678214 6.1086307733516305 0 0 0
687 1 10.86875138714553 22.597475206067184 6.1444571015774025 0 0 0
496 1 14.988251323606505 19.850560185622424 3.7301602605147313 0 0 0
507 1 12.30406340097281 21.84618552734551 3.770156388644566 0 0 0
511 2 14.942240759716798 22.654862955141574 3.7897043746983354 0 0 0
668 1 13.603798588671616 20.705657857963626 6.194214149429352 0 0 0
499 2 17.643270466263903 20.776386244664018 3.81084806042538 0 0 0
675 1 18.965387817013678 19.852048650202942 6.107057031209336 0 0 0
688 1 16.33700744953594 21.72578544712743 6.123412445359409 0 0 0
690 2 18.95116268111632 22.638947301882013 6.101930922999955 0 0 0
2792 1 1.4899937180350886 26.372697963971618 3.707647667079487 0 0 0
504 2 1.4891592136778486 23.64088051030105 3.733058759127862 0 0 0
694 2 2.8594956281207877 25.500670170714887 6.046632486607294 0 0 0
692 1 0.03262440023216644 24.482245186545757 6.1503589583243246 0 0 0
2968 2 0.19146556139221926 27.35819926352594 6.033169313581191 0 0 0
677 2 5.526828463020711 23.615897254555925 6.0712839788239625 0 0 0
516 1 4.146889623760244 24.61576657263 3.795188727682739 0 0 0
518 1 6.907826787650069 25.506481021545255 3.7030285296163656 0 0 0
2961 1 5.4996870208887545 26.3962648035785 6.115911937457512 0 0 0
2796 2 4.208562381630348 27.39442806857062 3.7412411805514014 0 0 0
510 1 9.577673288553225 23.623288077372102 3.6601153029098454 0 0 0
2794 1 9.57031408086365 26.510748596825522 3.7541720823516704 0 0 0
698 1 10.963601966935236 25.495594520856482 6.0244024927671225 0 0 0
696 1 8.189915722751447 24.502689019648486 6.105410319087187 0 0 0
2974 1 8.1992293305268 27.4109676983707 6.122053240873796 0 0 0
522 1 14.915259422707393 25.430545444924302 3.74485356555347 0 0 0
520 2 12.241675514080558 24.570109071493036 3.7517925618627097 0 0 0
683 1 13.66660571599722 23.672393580573914 6.037634249035 0 0 0
2963 2 13.627555317061075 26.445965412346176 6.049073744001377 0 0 0
2802 1 12.345782065738252 27.339079062856335 3.73214872558176 0 0 0
514 1 17.603445984401535 23.560374031620682 3.790456229140581 0 0 0
2795 2 17.663143057014604 26.363020272590596 3.793651018404231 0 0 0
699 2 16.335409572090317 24.546881067760577 6.102163305968865 0 0 0
700 1 19.105014324800745 25.34945993903703 6.07108325150082 0 0 0
2799 2 1.4731548647276054 29.29506762761368 3.7239460500056034 0 0 0
2971 1 2.8557024895457515 28.324879610207436 5.881874447956969 0 0 0
2983 1 0.15213641294934566 30.172014202221398 5.9785155705114565 0 0 0
2986 1 2.822527397092643 31.23120316506526 6.180142850456405 0 0 0
2800 1 6.858308410551324 28.399365576177043 3.7864490766336125 0 0 0
2811 2 4.195763422791878 30.265334153873887 3.8143691338033374 0 0 0
2967 1 5.594253499427351 29.473469901843377 6.122308545039985 0 0 0
2815 2 6.963198911187501 31.18162513412996 3.7706192553184317 0 0 0
2805 2 9.5971884903094 29.29265725281201 3.7502192645296692 0 0 0
2989 1 8.251760674791432 30.364799459474124 6.091192124714105 0 0 0
2977 1 10.891558425956289 28.417403852746727 6.083041327060733 0 0 0
2992 2 11.00040047411309 31.180333540947643 6.071446122759329 0 0 0
2817 1 12.254334271876433 30.26333356586061 3.7559456805409206 0 0 0
2806 2 14.917412459797017 28.312869029284567 3.778457678922998 0 0 0
2973 1 13.69017860503383 29.20577318372638 6.1331211644863854 0 0 0
2821 1 15.190216573812448 31.01552254843222 3.813476172294303 0 0 0
2978 1 16.40671607244497 27.44483214298518 5.933446781705167 0 0 0
2980 2 19.01831417244892 28.27275629579954 6.133090041183666 0 0 0
2995 1 18.92513947563819 31.016421728002218 5.9653859373125515 0 0 0
2809 2 17.668884452139398 29.26764403457874 3.806111840807247 0 0 0
2993 2 16.27888417829292 30.237064200080386 6.147275337819834 0 0 0
559 2 1.6044882257696869 0.9129026276510124 8.401278811506597 0 0 0
748 1 0.26538001566904523 1.7624729036614661 10.673709377899298 0 0 0
736 1 2.925545748459036 -0.12557576915709948 10.790088854059716 0 0 0
751 1 2.833024506911243 2.9095652428685246 10.67885455552087 0 0 0
560 2 6.941420782282818 0.027195700088833003 8.36533563606241 0 0 0
571 1 4.26435780130415 1.7024230205149289 8.456187477906093 0 0 0
732 2 5.574714920072474 0.9129555707650858 10.739727955175251 0 0 0
575 1 6.98312700646116 2.904151760205675 8.267816121175953 0 0 0
556 2 4.2037889812183264 -0.9853900933304475 8.390338657688192 0 0 0
565 1 9.638293497441937 0.9781367630804134 8.291529621609554 0 0 0
742 2 10.895788230845946 0.012008839237336436 10.64304532201336 0 0 0
754 1 8.180550646037599 1.811329990140441 10.664409433842478 0 0 0
757 1 10.960621708559215 2.8426559950416364 10.632181900127383 0 0 0
739 1 8.29658381570083 -0.9922173757891705 10.532860963926375 0 0 0
566 2 14.95892831355537 0.017861748136167026 8.368550389533594 0 0 0
577 2 12.278314659332882 1.8817366005662846 8.373645522486706 0 0 0
738 1 13.532106485969171 0.8891246705983563 10.716821982774833 0 0 0
581 1 14.89881104184992 2.8331371698352865 8.36628588650911 0 0 0
562 1 12.262667537971367 -0.9152061341180779 8.272877118900746 0 0 0
569 1 17.650440828127003 1.1214927056399693 8.464877057240976 0 0 0
745 2 18.93943067109737 -0.0675360806838072 10.601597737274158 0 0 0
758 2 16.213043863008863 1.8807352906565054 10.671665257672233 0 0 0
760 2 18.94502567743501 2.8314307104049212 10.649757403150309 0 0 0
743 1 16.230230981836417 -0.8842012030583251 10.629855617999647 0 0 0
574 2 1.547677939730763 3.794103006498005 8.423100038441458 0 0 0
763 1 0.03656688061971707 4.865844785210032 10.689471383156643 0 0 0
589 1 1.5408510769187262 6.64660175736605 8.405910913742053 0 0 0
766 2 2.833536226498208 5.626819157365533 10.734614938073967 0 0 0
586 1 4.1919612255806165 4.749381691107658 8.34224050453564 0 0 0
590 2 6.9103924442637155 5.646342354142016 8.3751120363123 0 0 0
747 1 5.532760078941595 3.688661336380164 10.723839457223054 0 0 0
762 1 5.4920691673874 6.57817496181446 10.627090696018515 0 0 0
580 2 9.588700564927793 3.7818118565050525 8.37441707188599 0 0 0
769 1 8.256481242759346 4.785643362874474 10.7140964682724 0 0 0
595 1 9.522996987505685 6.513071542593362 8.382542397447732 0 0 0
772 1 10.89793542873879 5.798611611784703 10.756734029478572 0 0 0
592 1 12.301741510037486 4.631428619240938 8.367106691558407 0 0 0
596 2 14.995800972077786 5.606904716662522 8.38750681402478 0 0 0
768 1 13.708778431996338 6.520202236298203 10.62857191234328 0 0 0
753 2 13.644279692821195 3.7552980133911995 10.721217128071707 0 0 0
584 2 17.58223798416704 3.811690136097515 8.303729717902897 0 0 0
775 2 18.947372152363588 5.731782295504299 10.637415724283219 0 0 0
773 1 16.442808248454217 4.586164539625458 10.673314908236526 0 0 0
599 1 17.590901419000943 6.626447815691977 8.32723853207588 0 0 0
604 2 1.5140000813373284 9.417088683170727 8.40886404946786 0 0 0
781 1 2.899905038415115 8.418558276418182 10.677640640841316 0 0 0
778 2 0.21156334820739991 7.580073911712261 10.706907450261951 0 0 0
793 1 0.35360570151296994 10.429715443326838 10.873001632901037 0 0 0
601 2 4.223007100351634 7.539048809219901 8.36020808972522 0 0 0
605 1 6.901337974854501 8.493448321063127 8.485007282038255 0 0 0
616 1 4.1467768779578 10.303655488246607 8.406304887737642 0 0 0
777 2 5.523789949649669 9.39108966619306 10.715396477993975 0 0 0
610 1 9.595911157390281 9.48607622003819 8.511444051930445 0 0 0
787 2 10.972694775816302 8.560413794009039 10.690372779935235 0 0 0
799 2 8.245572419950697 10.399636330755818 10.684441633617803 0 0 0
784 2 8.211318573000883 7.546857738271041 10.69581892521079 0 0 0
611 2 14.967117578779305 8.467800318235717 8.42618227301366 0 0 0
607 1 12.288393967713944 7.595005162951569 8.437774014152023 0 0 0
622 2 12.200269240592712 10.417982870571178 8.350410733772291 0 0 0
783 1 13.685919579343723 9.643886671579743 10.518585075768483 0 0 0
614 1 17.46492430029617 9.605992830068503 8.40011264747741 0 0 0
803 2 16.287227123851103 10.453363721275068 10.750652017552943 0 0 0
790 2 18.915492860872387 8.589053420652965 10.700623862755226 0 0 0
788 1 16.378947011687796 7.616164938161439 10.738575139505983 0 0 0
796 2 2.921305611392958 11.298235037822126 10.633921469583225 0 0 0
619 1 1.4700076730432918 12.276975019418124 8.396536890376304 0 0 0
808 2 0.18584457286192801 13.179849168512286 10.648308137257025 0 0 0
811 1 2.7861673632892647 14.030664496403567 10.874371535998701 0 0 0
634 1 1.6286307187401508 15.279053022490745 8.243917425329068 0 0 0
620 1 6.975550011637688 11.405110175091203 8.337685823416306 0 0 0
631 1 4.283564683423226 13.243921757543161 8.33681987020262 0 0 0
635 2 6.86548036954444 14.19232969721152 8.401434903522283 0 0 0
792 1 5.594989597071058 12.08556315535667 10.75463482390288 0 0 0
807 1 5.589874872483581 15.160833482789348 10.712255166462306 0 0 0
625 2 9.624763062972933 12.287333895416616 8.389755486457128 0 0 0
817 2 10.89797723989063 14.193585980425253 10.631752564682424 0 0 0
802 1 10.998054119186639 11.501686609722844 10.793510294588069 0 0 0
814 1 8.254030849968823 13.183313344120682 10.683629268961793 0 0 0
640 1 9.560598086002228 15.075072130999267 8.401252350760586 0 0 0
626 2 14.913690699155609 11.399174426583782 8.352364757766656 0 0 0
637 1 12.491340216265021 13.226263451885602 8.17547759764463 0 0 0
641 2 14.955855797892617 14.333904368223937 8.577496867272492 0 0 0
798 2 13.598344149613999 12.360153988441677 10.660508783026463 0 0 0
813 1 13.439388946129164 15.10138101632478 10.876133984423372 0 0 0
805 1 18.946566851695945 11.403260028171749 10.727645597895219 0 0 0
629 2 17.625394914472015 12.367435701106928 8.414278236360339 0 0 0
818 1 16.254990188442825 13.26246693343067 10.686258671432352 0 0 0
820 1 18.91148184039535 14.387204481797239 10.688706100111014 0 0 0
644 2 17.66598168754483 15.218910783605669 8.40978440673982 0 0 0
649 2 1.5116933263784884 18.003696814360197 8.416619593808907 0 0 0
823 2 0.2302885349323312 16.022835028387988 10.614151251873723 0 0 0
826 1 2.8429979925461644 16.987599711392786 10.80324451277592 0 0 0
838 1 0.13591461559861082 18.875465078961764 10.672229865409548 0 0 0
646 2 4.240917357410374 16.020012090811548 8.45142822559241 0 0 0
650 1 6.928553002393489 16.982416465873037 8.418997358611513 0 0 0
661 1 4.143347509619588 18.739192008752045 8.287512002685064 0 0 0
822 2 5.538579345328007 17.944741589674432 10.678734435953093 0 0 0
655 2 9.557483168054326 17.931020692121784 8.42512850479424 0 0 0
829 2 8.23902375798763 16.033980332778455 10.72205717565001 0 0 0
832 1 10.8311532233539 17.06489271460437 10.72346725497714 0 0 0
844 1 8.162944407872063 18.92716197088526 10.72812957418102 0 0 0
656 1 14.84530359937089 16.98573557476046 8.217195262424077 0 0 0
652 2 12.242229691385099 16.041040871581625 8.469657432637302 0 0 0
828 2 13.558650497913957 17.936609055856795 10.700351053422768 0 0 0
667 1 12.193720841366655 18.90999232323629 8.441049908693467 0 0 0
659 1 17.609812404323183 17.941366984768887 8.285316235356323 0 0 0
835 2 18.974719592640625 17.112186892089518 10.65747154750701 0 0 0
833 2 16.214163782130125 16.14531492338599 10.681114917088331 0 0 0
848 1 16.15913424862892 18.961046788566566 10.631435649949394 0 0 0
664 1 1.409287472942385 21.021364755585555 8.580776220071197 0 0 0
856 2 2.8481571084904647 22.63824977811929 10.645966280052939 0 0 0
841 2 2.8588215346669377 19.757787141406094 10.648519274593363 0 0 0
853 2 0.07883532802470326 21.617675422951315 10.904739194815969 0 0 0
665 2 6.863885520817328 19.81035055352606 8.409557407798603 0 0 0
676 2 4.181020658387324 21.6708323290349 8.309800942089392 0 0 0
680 1 6.93726261237898 22.66041434678369 8.356170589477403 0 0 0
837 1 5.3760547015670745 20.839826481249354 10.617824695636612 0 0 0
670 1 9.546143285185874 20.77176673736937 8.415837831898093 0 0 0
859 2 8.192614608094072 21.702714897206928 10.703650392478078 0 0 0
847 2 10.856348429088149 19.83693647950348 10.744789677019776 0 0 0
862 1 10.855013832093908 22.65076094099535 10.695870452897596 0 0 0
671 2 14.910672876438609 19.839471121114382 8.403423011566462 0 0 0
682 2 12.24544168643321 21.72935156644633 8.404146667024229 0 0 0
686 1 14.93663695726229 22.620758333853573 8.554650313325066 0 0 0
843 1 13.487100785057237 20.73566444828529 10.754364554863269 0 0 0
865 2 19.0521466685868 22.632978974751 10.735777101119368 0 0 0
674 2 17.65536336909065 20.812385722883203 8.37466902871627 0 0 0
863 2 16.27854579601476 21.712864020160247 10.719432013206326 0 0 0
850 1 18.971684939811528 19.913099724626214 10.582030892100017 0 0 0
679 2 1.6151492647897345 23.711484879112934 8.201454840042851 0 0 0
2962 1 1.5431848042946756 26.48103730964292 8.25348127981395 0 0 0
867 1 0.34751472801479044 24.239299885612684 10.520713753517786 0 0 0
869 2 2.872950134978528 25.538872319563698 10.63999972658566 0 0 0
3138 1 0.41399401961345556 27.497805781983086 10.609419365673455 0 0 0
852 2 5.608485665865802 23.596401758666968 10.647649711815745 0 0 0
691 1 4.184282884877163 24.378094113679932 8.466531959732086 0 0 0
693 2 6.8624857655944025 25.47696939389931 8.365165782578792 0 0 0
3131 1 5.661130024170176 26.442444381616998 10.61935083837723 0 0 0
2966 1 4.150572457824022 27.506896728780358 8.419996245919915 0 0 0
685 2 9.562981631398449 23.635162691772763 8.364003473909229 0 0 0
2964 1 9.41996078073142 26.51042674122306 8.454650800568274 0 0 0
873 2 10.906935218041273 25.50992379795213 10.654231452826567 0 0 0
871 1 8.260015629110415 24.529683246479827 10.697287484062342 0 0 0
3144 2 8.225810489706054 27.433635715043938 10.700182957985346 0 0 0
695 1 12.165009446250771 24.504812786463503 8.42682360816435 0 0 0
697 1 15.03047204951457 25.577190003117025 8.26432341158141 0 0 0
858 2 13.531758119808641 23.58519923709187 10.687967395115622 0 0 0
3133 1 13.61527880213499 26.30859319925759 10.740572252044785 0 0 0
2972 1 12.315360779671801 27.3709224027232 8.333746439656224 0 0 0
689 1 17.73780816881084 23.652672748449504 8.587718074820128 0 0 0
2965 2 17.623555485984433 26.43035439569443 8.338266128145111 0 0 0
874 2 16.221298500358856 24.588691841928025 10.653758626847544 0 0 0
875 2 19.01993871268382 25.526464999666388 10.74711051725245 0 0 0
3148 1 16.53515194443898 27.296924570541396 10.725555149673202 0 0 0
3156 1 2.795522603055469 31.079157626275563 10.52237108222809 0 0 0
2969 2 1.5372220579334703 29.28847069463538 8.290360008852964 0 0 0
3141 2 2.945260862752231 28.37290639097168 10.677103274357957 0 0 0
3153 2 0.22797871147334411 30.260753075369564 10.697752457720098 0 0 0
2985 2 6.9824628600389085 31.22352725031768 8.365269059800353 0 0 0
2970 2 6.856658621625161 28.3606100091813 8.357160127471994 0 0 0
2981 2 4.249271708638814 30.274636925340477 8.349678517218276 0 0 0
3137 1 5.6116244160764435 29.483343247005333 10.648058172030774 0 0 0
3162 2 10.925849231540072 31.17779709440912 10.70009560778792 0 0 0
2975 2 9.613385224228146 29.296338692603314 8.366522939154084 0 0 0
3159 1 8.286829191623362 30.22483079522872 10.584712448384584 0 0 0
3147 1 10.92609059886958 28.315991978751505 10.737473759302143 0 0 0
2976 2 14.9980047093814 28.296384434400213 8.390220017236885 0 0 0
2987 1 12.220316004407877 30.26691017597766 8.428874045359711 0 0 0
3143 1 13.76491296653463 29.20540002928614 10.644659134465423 0 0 0