 # Bcc Nb oriented X=[11-2], Y=[111], Z=[1-10].
  
       38640  atoms
           2  atom types
 
      0.000000000000      80.388682980000  xlo xhi
      0.000000000000     130.739780590000  ylo yhi
      0.000000000000      64.977398860000  zlo zhi
 
Masses
 
            1   92.90638000             # Nb
            2   47.86700000             # Ti
 
Atoms # atomic
 
         1    1        4.019434149000       0.000000000000       2.320621666332
         2    2        5.359245799962       1.894778955146       0.000000000000
         3    1        0.000000000000       0.000000000000       0.000000000000
         4    2        1.339811650962       1.894778955146       2.320621666332
         5    2        6.699056647038       0.947390131272       2.320621666332
         6    1        2.679622498038       0.947390131272       0.000000000000
         7    1       12.058302447000       0.000000000000       2.320621666332
         8    2       13.398114097962       1.894778955146       0.000000000000
         9    2        8.038868298000       0.000000000000       0.000000000000
        10    1        9.378679948962       1.894778955146       2.320621666332
        11    1       14.737924945038       0.947390131272       2.320621666332
        12    2       10.718490796038       0.947390131272       0.000000000000
        13    1       20.097170745000       0.000000000000       2.320621666332
        14    1       21.436982395962       1.894778955146       0.000000000000
        15    1       16.077736596000       0.000000000000       0.000000000000
        16    2       17.417548246962       1.894778955146       2.320621666332
        17    1       22.776793243038       0.947390131272       2.320621666332
        18    2       18.757359094038       0.947390131272       0.000000000000
        19    2       28.136039043000       0.000000000000       2.320621666332
        20    1       29.475850693962       1.894778955146       0.000000000000
        21    1       24.116604894000       0.000000000000       0.000000000000
        22    2       25.456416544962       1.894778955146       2.320621666332
        23    1       30.815661541038       0.947390131272       2.320621666332
        24    1       26.796227392038       0.947390131272       0.000000000000
        25    1       36.174907341000       0.000000000000       2.320621666332
        26    1       37.514718991962       1.894778955146       0.000000000000
        27    1       32.155473192000       0.000000000000       0.000000000000
        28    1       33.495284842962       1.894778955146       2.320621666332
        29    2       38.854529839038       0.947390131272       2.320621666332
        30    2       34.835095690038       0.947390131272       0.000000000000
        31    1       44.213775639000       0.000000000000       2.320621666332
        32    1       45.553587289962       1.894778955146       0.000000000000
        33    2       40.194341490000       0.000000000000       0.000000000000
        34    2       41.534153140962       1.894778955146       2.320621666332
        35    1       46.893398137038       0.947390131272       2.320621666332
        36    2       42.873963988038       0.947390131272       0.000000000000
        37    2       52.252643937000       0.000000000000       2.320621666332
        38    2       53.592455587962       1.894778955146       0.000000000000
        39    2       48.233209788000       0.000000000000       0.000000000000
        40    2       49.573021438962       1.894778955146       2.320621666332
        41    2       54.932266435038       0.947390131272       2.320621666332
        42    1       50.912832286038       0.947390131272       0.000000000000
        43    2       60.291512235000       0.000000000000       2.320621666332
        44    2       61.631323885962       1.894778955146       0.000000000000
        45    1       56.272078086000       0.000000000000       0.000000000000
        46    1       57.611889736962       1.894778955146       2.320621666332
        47    1       62.971134733038       0.947390131272       2.320621666332
        48    2       58.951700584038       0.947390131272       0.000000000000
        49    2       68.330380533000       0.000000000000       2.320621666332
        50    1       69.670192183962       1.894778955146       0.000000000000
        51    2       64.310946384000       0.000000000000       0.000000000000
        52    2       65.650758034962       1.894778955146       2.320621666332
        53    1       71.010003031038       0.947390131272       2.320621666332
        54    2       66.990568882038       0.947390131272       0.000000000000
        55    2       76.369248831000       0.000000000000       2.320621666332
        56    1       77.709060481962       1.894778955146       0.000000000000
        57    1       72.349814682000       0.000000000000       0.000000000000
        58    2       73.689626332962       1.894778955146       2.320621666332
        59    1       79.048871329038       0.947390131272       2.320621666332
        60    2       75.029437180038       0.947390131272       0.000000000000
        61    1        4.019434149000       2.842169086417       2.320621666332
        62    2        5.359245799962       4.736948041563       0.000000000000
        63    1        0.000000000000       2.842169086417       0.000000000000
        64    1        1.339811650962       4.736948041563       2.320621666332
        65    1        6.699056647038       3.789559217689       2.320621666332
        66    1        2.679622498038       3.789559217689       0.000000000000
        67    1       12.058302447000       2.842169086417       2.320621666332
        68    1       13.398114097962       4.736948041563       0.000000000000
        69    2        8.038868298000       2.842169086417       0.000000000000
        70    1        9.378679948962       4.736948041563       2.320621666332
        71    2       14.737924945038       3.789559217689       2.320621666332
        72    1       10.718490796038       3.789559217689       0.000000000000
        73    1       20.097170745000       2.842169086417       2.320621666332
        74    2       21.436982395962       4.736948041563       0.000000000000
        75    2       16.077736596000       2.842169086417       0.000000000000
        76    2       17.417548246962       4.736948041563       2.320621666332
        77    1       22.776793243038       3.789559217689       2.320621666332
        78    2       18.757359094038       3.789559217689       0.000000000000
        79    1       28.136039043000       2.842169086417       2.320621666332
        80    1       29.475850693962       4.736948041563       0.000000000000
        81    1       24.116604894000       2.842169086417       0.000000000000
        82    2       25.456416544962       4.736948041563       2.320621666332
        83    1       30.815661541038       3.789559217689       2.320621666332
        84    1       26.796227392038       3.789559217689       0.000000000000
        85    1       36.174907341000       2.842169086417       2.320621666332
        86    2       37.514718991962       4.736948041563       0.000000000000
        87    1       32.155473192000       2.842169086417       0.000000000000
        88    1       33.495284842962       4.736948041563       2.320621666332
        89    2       38.854529839038       3.789559217689       2.320621666332
        90    2       34.835095690038       3.789559217689       0.000000000000
        91    2       44.213775639000       2.842169086417       2.320621666332
        92    2       45.553587289962       4.736948041563       0.000000000000
        93    2       40.194341490000       2.842169086417       0.000000000000
        94    2       41.534153140962       4.736948041563       2.320621666332
        95    2       46.893398137038       3.789559217689       2.320621666332
        96    2       42.873963988038       3.789559217689       0.000000000000
        97    1       52.252643937000       2.842169086417       2.320621666332
        98    1       53.592455587962       4.736948041563       0.000000000000
        99    1       48.233209788000       2.842169086417       0.000000000000
       100    2       49.573021438962       4.736948041563       2.320621666332
       101    2       54.932266435038       3.789559217689       2.320621666332
       102    2       50.912832286038       3.789559217689       0.000000000000
       103    2       60.291512235000       2.842169086417       2.320621666332
       104    2       61.631323885962       4.736948041563       0.000000000000
       105    2       56.272078086000       2.842169086417       0.000000000000
       106    2       57.611889736962       4.736948041563       2.320621666332
       107    2       62.971134733038       3.789559217689       2.320621666332
       108    1       58.951700584038       3.789559217689       0.000000000000
       109    1       68.330380533000       2.842169086417       2.320621666332
       110    2       69.670192183962       4.736948041563       0.000000000000
       111    1       64.310946384000       2.842169086417       0.000000000000
       112    1       65.650758034962       4.736948041563       2.320621666332
       113    1       71.010003031038       3.789559217689       2.320621666332
       114    1       66.990568882038       3.789559217689       0.000000000000
       115    1       76.369248831000       2.842169086417       2.320621666332
       116    1       77.709060481962       4.736948041563       0.000000000000
       117    1       72.349814682000       2.842169086417       0.000000000000
       118    2       73.689626332962       4.736948041563       2.320621666332
       119    1       79.048871329038       3.789559217689       2.320621666332
       120    1       75.029437180038       3.789559217689       0.000000000000
       121    2        4.019434149000       5.684338172835       2.320621666332
       122    2        5.359245799962       7.579117127981       0.000000000000
       123    2        0.000000000000       5.684338172835       0.000000000000
       124    2        1.339811650962       7.579117127981       2.320621666332
       125    1        6.699056647038       6.631728304107       2.320621666332
       126    2        2.679622498038       6.631728304107       0.000000000000
       127    1       12.058302447000       5.684338172835       2.320621666332
       128    1       13.398114097962       7.579117127981       0.000000000000
       129    2        8.038868298000       5.684338172835       0.000000000000
       130    2        9.378679948962       7.579117127981       2.320621666332
       131    2       14.737924945038       6.631728304107       2.320621666332
       132    2       10.718490796038       6.631728304107       0.000000000000
       133    2       20.097170745000       5.684338172835       2.320621666332
       134    1       21.436982395962       7.579117127981       0.000000000000
       135    1       16.077736596000       5.684338172835       0.000000000000
       136    1       17.417548246962       7.579117127981       2.320621666332
       137    2       22.776793243038       6.631728304107       2.320621666332
       138    2       18.757359094038       6.631728304107       0.000000000000
       139    1       28.136039043000       5.684338172835       2.320621666332
       140    1       29.475850693962       7.579117127981       0.000000000000
       141    2       24.116604894000       5.684338172835       0.000000000000
       142    2       25.456416544962       7.579117127981       2.320621666332
       143    1       30.815661541038       6.631728304107       2.320621666332
       144    2       26.796227392038       6.631728304107       0.000000000000
       145    2       36.174907341000       5.684338172835       2.320621666332
       146    2       37.514718991962       7.579117127981       0.000000000000
       147    2       32.155473192000       5.684338172835       0.000000000000
       148    2       33.495284842962       7.579117127981       2.320621666332
       149    2       38.854529839038       6.631728304107       2.320621666332
       150    1       34.835095690038       6.631728304107       0.000000000000
       151    2       44.213775639000       5.684338172835       2.320621666332
       152    1       45.553587289962       7.579117127981       0.000000000000
       153    2       40.194341490000       5.684338172835       0.000000000000
       154    1       41.534153140962       7.579117127981       2.320621666332
       155    2       46.893398137038       6.631728304107       2.320621666332
       156    1       42.873963988038       6.631728304107       0.000000000000
       157    1       52.252643937000       5.684338172835       2.320621666332
       158    2       53.592455587962       7.579117127981       0.000000000000
       159    1       48.233209788000       5.684338172835       0.000000000000
       160    2       49.573021438962       7.579117127981       2.320621666332
       161    2       54.932266435038       6.631728304107       2.320621666332
       162    1       50.912832286038       6.631728304107       0.000000000000
       163    2       60.291512235000       5.684338172835       2.320621666332
       164    1       61.631323885962       7.579117127981       0.000000000000
       165    2       56.272078086000       5.684338172835       0.000000000000
       166    1       57.611889736962       7.579117127981       2.320621666332
       167    1       62.971134733038       6.631728304107       2.320621666332
       168    2       58.951700584038       6.631728304107       0.000000000000
       169    1       68.330380533000       5.684338172835       2.320621666332
       170    2       69.670192183962       7.579117127981       0.000000000000
       171    1       64.310946384000       5.684338172835       0.000000000000
       172    1       65.650758034962       7.579117127981       2.320621666332
       173    1       71.010003031038       6.631728304107       2.320621666332
       174    2       66.990568882038       6.631728304107       0.000000000000
       175    2       76.369248831000       5.684338172835       2.320621666332
       176    2       77.709060481962       7.579117127981       0.000000000000
       177    2       72.349814682000       5.684338172835       0.000000000000
       178    1       73.689626332962       7.579117127981       2.320621666332
       179    2       79.048871329038       6.631728304107       2.320621666332
       180    2       75.029437180038       6.631728304107       0.000000000000
       181    1        4.019434149000       8.526507259252       2.320621666332
       182    1        5.359245799962      10.421286214398       0.000000000000
       183    2        0.000000000000       8.526507259252       0.000000000000
       184    2        1.339811650962      10.421286214398       2.320621666332
       185    2        6.699056647038       9.473897390524       2.320621666332
       186    2        2.679622498038       9.473897390524       0.000000000000
       187    2       12.058302447000       8.526507259252       2.320621666332
       188    2       13.398114097962      10.421286214398       0.000000000000
       189    2        8.038868298000       8.526507259252       0.000000000000
       190    2        9.378679948962      10.421286214398       2.320621666332
       191    2       14.737924945038       9.473897390524       2.320621666332
       192    2       10.718490796038       9.473897390524       0.000000000000
       193    2       20.097170745000       8.526507259252       2.320621666332
       194    1       21.436982395962      10.421286214398       0.000000000000
       195    1       16.077736596000       8.526507259252       0.000000000000
       196    1       17.417548246962      10.421286214398       2.320621666332
       197    1       22.776793243038       9.473897390524       2.320621666332
       198    2       18.757359094038       9.473897390524       0.000000000000
       199    1       28.136039043000       8.526507259252       2.320621666332
       200    2       29.475850693962      10.421286214398       0.000000000000
       201    1       24.116604894000       8.526507259252       0.000000000000
       202    2       25.456416544962      10.421286214398       2.320621666332
       203    1       30.815661541038       9.473897390524       2.320621666332
       204    2       26.796227392038       9.473897390524       0.000000000000
       205    1       36.174907341000       8.526507259252       2.320621666332
       206    1       37.514718991962      10.421286214398       0.000000000000
       207    2       32.155473192000       8.526507259252       0.000000000000
       208    2       33.495284842962      10.421286214398       2.320621666332
       209    2       38.854529839038       9.473897390524       2.320621666332
       210    2       34.835095690038       9.473897390524       0.000000000000
       211    2       44.213775639000       8.526507259252       2.320621666332
       212    2       45.553587289962      10.421286214398       0.000000000000
       213    1       40.194341490000       8.526507259252       0.000000000000
       214    1       41.534153140962      10.421286214398       2.320621666332
       215    1       46.893398137038       9.473897390524       2.320621666332
       216    2       42.873963988038       9.473897390524       0.000000000000
       217    2       52.252643937000       8.526507259252       2.320621666332
       218    2       53.592455587962      10.421286214398       0.000000000000
       219    2       48.233209788000       8.526507259252       0.000000000000
       220    2       49.573021438962      10.421286214398       2.320621666332
       221    2       54.932266435038       9.473897390524       2.320621666332
       222    2       50.912832286038       9.473897390524       0.000000000000
       223    2       60.291512235000       8.526507259252       2.320621666332
       224    2       61.631323885962      10.421286214398       0.000000000000
       225    2       56.272078086000       8.526507259252       0.000000000000
       226    2       57.611889736962      10.421286214398       2.320621666332
       227    1       62.971134733038       9.473897390524       2.320621666332
       228    1       58.951700584038       9.473897390524       0.000000000000
       229    2       68.330380533000       8.526507259252       2.320621666332
       230    2       69.670192183962      10.421286214398       0.000000000000
       231    2       64.310946384000       8.526507259252       0.000000000000
       232    2       65.650758034962      10.421286214398       2.320621666332
       233    2       71.010003031038       9.473897390524       2.320621666332
       234    2       66.990568882038       9.473897390524       0.000000000000
       235    2       76.369248831000       8.526507259252       2.320621666332
       236    2       77.709060481962      10.421286214398       0.000000000000
       237    1       72.349814682000       8.526507259252       0.000000000000
       238    2       73.689626332962      10.421286214398       2.320621666332
       239    2       79.048871329038       9.473897390524       2.320621666332
       240    1       75.029437180038       9.473897390524       0.000000000000
       241    1        4.019434149000      11.368676345670       2.320621666332
       242    2        5.359245799962      13.263456608213       0.000000000000
       243    1        0.000000000000      11.368676345670       0.000000000000
       244    1        1.339811650962      13.263456608213       2.320621666332
       245    1        6.699056647038      12.316066476942       2.320621666332
       246    2        2.679622498038      12.316066476942       0.000000000000
       247    1       12.058302447000      11.368676345670       2.320621666332
       248    1       13.398114097962      13.263456608213       0.000000000000
       249    1        8.038868298000      11.368676345670       0.000000000000
       250    2        9.378679948962      13.263456608213       2.320621666332
       251    1       14.737924945038      12.316066476942       2.320621666332
       252    2       10.718490796038      12.316066476942       0.000000000000
       253    1       20.097170745000      11.368676345670       2.320621666332
       254    1       21.436982395962      13.263456608213       0.000000000000
       255    1       16.077736596000      11.368676345670       0.000000000000
       256    1       17.417548246962      13.263456608213       2.320621666332
       257    2       22.776793243038      12.316066476942       2.320621666332
       258    1       18.757359094038      12.316066476942       0.000000000000
       259    2       28.136039043000      11.368676345670       2.320621666332
       260    1       29.475850693962      13.263456608213       0.000000000000
       261    1       24.116604894000      11.368676345670       0.000000000000
       262    2       25.456416544962      13.263456608213       2.320621666332
       263    1       30.815661541038      12.316066476942       2.320621666332
       264    1       26.796227392038      12.316066476942       0.000000000000
       265    1       36.174907341000      11.368676345670       2.320621666332
       266    1       37.514718991962      13.263456608213       0.000000000000
       267    1       32.155473192000      11.368676345670       0.000000000000
       268    1       33.495284842962      13.263456608213       2.320621666332
       269    1       38.854529839038      12.316066476942       2.320621666332
       270    1       34.835095690038      12.316066476942       0.000000000000
       271    1       44.213775639000      11.368676345670       2.320621666332
       272    1       45.553587289962      13.263456608213       0.000000000000
       273    1       40.194341490000      11.368676345670       0.000000000000
       274    1       41.534153140962      13.263456608213       2.320621666332
       275    1       46.893398137038      12.316066476942       2.320621666332
       276    1       42.873963988038      12.316066476942       0.000000000000
       277    2       52.252643937000      11.368676345670       2.320621666332
       278    2       53.592455587962      13.263456608213       0.000000000000
       279    2       48.233209788000      11.368676345670       0.000000000000
       280    2       49.573021438962      13.263456608213       2.320621666332
       281    2       54.932266435038      12.316066476942       2.320621666332
       282    2       50.912832286038      12.316066476942       0.000000000000
       283    2       60.291512235000      11.368676345670       2.320621666332
       284    2       61.631323885962      13.263456608213       0.000000000000
       285    2       56.272078086000      11.368676345670       0.000000000000
       286    2       57.611889736962      13.263456608213       2.320621666332
       287    1       62.971134733038      12.316066476942       2.320621666332
       288    1       58.951700584038      12.316066476942       0.000000000000
       289    1       68.330380533000      11.368676345670       2.320621666332
       290    1       69.670192183962      13.263456608213       0.000000000000
       291    2       64.310946384000      11.368676345670       0.000000000000
       292    2       65.650758034962      13.263456608213       2.320621666332
       293    2       71.010003031038      12.316066476942       2.320621666332
       294    1       66.990568882038      12.316066476942       0.000000000000
       295    1       76.369248831000      11.368676345670       2.320621666332
       296    1       77.709060481962      13.263456608213       0.000000000000
       297    1       72.349814682000      11.368676345670       0.000000000000
       298    1       73.689626332962      13.263456608213       2.320621666332
       299    2       79.048871329038      12.316066476942       2.320621666332
       300    1       75.029437180038      12.316066476942       0.000000000000
       301    1        4.019434149000      14.210845432087       2.320621666332
       302    2        5.359245799962      16.105625694631       0.000000000000
       303    1        0.000000000000      14.210845432087       0.000000000000
       304    2        1.339811650962      16.105625694631       2.320621666332
       305    2        6.699056647038      15.158235563359       2.320621666332
       306    1        2.679622498038      15.158235563359       0.000000000000
       307    1       12.058302447000      14.210845432087       2.320621666332
       308    1       13.398114097962      16.105625694631       0.000000000000
       309    1        8.038868298000      14.210845432087       0.000000000000
       310    1        9.378679948962      16.105625694631       2.320621666332
       311    2       14.737924945038      15.158235563359       2.320621666332
       312    1       10.718490796038      15.158235563359       0.000000000000
       313    1       20.097170745000      14.210845432087       2.320621666332
       314    1       21.436982395962      16.105625694631       0.000000000000
       315    1       16.077736596000      14.210845432087       0.000000000000
       316    1       17.417548246962      16.105625694631       2.320621666332
       317    1       22.776793243038      15.158235563359       2.320621666332
       318    2       18.757359094038      15.158235563359       0.000000000000
       319    1       28.136039043000      14.210845432087       2.320621666332
       320    1       29.475850693962      16.105625694631       0.000000000000
       321    1       24.116604894000      14.210845432087       0.000000000000
       322    1       25.456416544962      16.105625694631       2.320621666332
       323    2       30.815661541038      15.158235563359       2.320621666332
       324    2       26.796227392038      15.158235563359       0.000000000000
       325    2       36.174907341000      14.210845432087       2.320621666332
       326    1       37.514718991962      16.105625694631       0.000000000000
       327    1       32.155473192000      14.210845432087       0.000000000000
       328    2       33.495284842962      16.105625694631       2.320621666332
       329    2       38.854529839038      15.158235563359       2.320621666332
       330    2       34.835095690038      15.158235563359       0.000000000000
       331    2       44.213775639000      14.210845432087       2.320621666332
       332    2       45.553587289962      16.105625694631       0.000000000000
       333    1       40.194341490000      14.210845432087       0.000000000000
       334    1       41.534153140962      16.105625694631       2.320621666332
       335    2       46.893398137038      15.158235563359       2.320621666332
       336    2       42.873963988038      15.158235563359       0.000000000000
       337    2       52.252643937000      14.210845432087       2.320621666332
       338    2       53.592455587962      16.105625694631       0.000000000000
       339    2       48.233209788000      14.210845432087       0.000000000000
       340    2       49.573021438962      16.105625694631       2.320621666332
       341    2       54.932266435038      15.158235563359       2.320621666332
       342    2       50.912832286038      15.158235563359       0.000000000000
       343    1       60.291512235000      14.210845432087       2.320621666332
       344    1       61.631323885962      16.105625694631       0.000000000000
       345    2       56.272078086000      14.210845432087       0.000000000000
       346    2       57.611889736962      16.105625694631       2.320621666332
       347    2       62.971134733038      15.158235563359       2.320621666332
       348    2       58.951700584038      15.158235563359       0.000000000000
       349    1       68.330380533000      14.210845432087       2.320621666332
       350    1       69.670192183962      16.105625694631       0.000000000000
       351    1       64.310946384000      14.210845432087       0.000000000000
       352    1       65.650758034962      16.105625694631       2.320621666332
       353    2       71.010003031038      15.158235563359       2.320621666332
       354    1       66.990568882038      15.158235563359       0.000000000000
       355    1       76.369248831000      14.210845432087       2.320621666332
       356    1       77.709060481962      16.105625694631       0.000000000000
       357    1       72.349814682000      14.210845432087       0.000000000000
       358    2       73.689626332962      16.105625694631       2.320621666332
       359    2       79.048871329038      15.158235563359       2.320621666332
       360    1       75.029437180038      15.158235563359       0.000000000000
       361    1        4.019434149000      17.053014518505       2.320621666332
       362    1        5.359245799962      18.947794781048       0.000000000000
       363    2        0.000000000000      17.053014518505       0.000000000000
       364    1        1.339811650962      18.947794781048       2.320621666332
       365    1        6.699056647038      18.000404649777       2.320621666332
       366    1        2.679622498038      18.000404649777       0.000000000000
       367    1       12.058302447000      17.053014518505       2.320621666332
       368    1       13.398114097962      18.947794781048       0.000000000000
       369    1        8.038868298000      17.053014518505       0.000000000000
       370    1        9.378679948962      18.947794781048       2.320621666332