LAMMPS data file via write_data, version 2 Aug 2023, timestep = 50082, units = metal

38640 atoms
2 atom types

-0.7474900984538884 79.6210598184547 xlo xhi
-1.2255800790169147 129.5012628890172 ylo yhi
-0.6236773340946852 64.37642472409624 zlo zhi

Masses

1 92.90600000000001
2 47.88

Atoms # atomic

4 1 0.5965843727999716 0.7125856445072349 1.624318707531939 0 0 0
19448 1 12.581259897959871 6.383042010533913 31.87129019180591 0 0 0
61 2 3.2226837495836307 1.579928240274 1.7454942128707311 0 0 0
2 1 4.491385719846165 0.7480750088923289 -0.6037793569844844 0 0 0
5 1 5.955279297806909 -0.3183213806519384 1.568313979688814 0 0 0
10 2 8.571504732041408 0.6379448374765966 1.6971593246661936 0 0 0
69 2 7.222972923414933 1.5882106222450338 -0.6025080647408294 0 0 0
7 1 11.3685828646042 -1.1685556897561677 1.6540111641038697 0 0 0
67 2 11.318234525852816 1.6111325850723386 1.6886928467248716 0 0 0
313 2 19.34364162169266 12.986895151805804 1.6829098556207311 0 0 0
11 2 13.987019954530005 -0.3226828610862943 1.7090304431322605 0 0 0
73 2 19.27901833115608 1.579501936438612 1.6163336864827746 0 0 0
16 1 16.66801741692219 0.547023723667706 1.6344599977900964 0 0 0
64 2 0.5418969878707065 3.4585487017342897 1.7374186262109936 0 0 0
66 2 1.9095074281069457 2.5630633191025334 -0.580642162859582 0 0 0
65 2 5.9081815288364 2.547580784845157 1.7391751262732598 0 0 0
121 2 3.2492345745492184 4.414659293762712 1.750084327331031 0 0 0
62 2 4.596823010700158 3.489750940846643 -0.6010588300315716 0 0 0
70 2 8.617565082869099 3.5148769967651887 1.6792531585620134 0 0 0
2833 1 19.340571894811504 1.524811689965126 6.329415369604769 0 0 0
72 1 9.827969550280805 2.4526163571738993 -0.5274257621596902 0 0 0
127 1 11.295686568483099 4.480664061797215 1.6596681660477226 0 0 0
71 2 13.988393139915871 2.5407141274761837 1.6892976809215878 0 0 0
135 1 15.215051787942944 4.4235484533152825 -0.5508829142015341 0 0 0
76 1 16.567398557168264 3.484550332128901 1.8320725824218766 0 0 0
133 1 19.308105597833716 4.373212610498959 1.538766757229273 0 0 0
126 1 1.8666780130776754 5.317150179324706 -0.5750889112851523 0 0 0
186 2 1.822814227410211 8.197525337369854 -0.5937747825059445 0 0 0
124 1 0.42412291239702116 6.239763091293792 1.8306637249094528 0 0 0
122 1 4.561607124899818 6.2546226234647495 -0.5275178579004641 0 0 0
125 2 5.925955870661155 5.396777837519323 1.706111087612062 0 0 0
181 2 3.205327511524091 7.261900715556392 1.7221431588129081 0 0 0
185 2 5.912867524205693 8.230417709343303 1.6880124394559184 0 0 0
130 2 8.62222009964827 6.384806726726886 1.6916857172844009 0 0 0
189 1 7.312906193189328 7.20226430754566 -0.5187445749005191 0 0 0
132 2 9.954036853356513 5.363327322133701 -0.6017444283422095 0 0 0
187 1 11.214049645668116 7.269488154918566 1.723680043070503 0 0 0
131 2 13.925977700068469 5.440587317843173 1.7195410028217446 0 0 0
191 1 13.95467095383681 8.225949251871537 1.6857497353285056 0 0 0
193 1 19.292902957220456 7.273342295711446 1.7651019732699411 0 0 0
136 1 16.568598284248004 6.365645259394787 1.836455926581459 0 0 0
198 1 18.020493841387804 8.187514105001277 -0.5804753649084681 0 0 0
138 2 17.893840919155146 5.393490693649657 -0.5919776117971871 0 0 0
184 1 0.6409521692318518 9.00269552013837 1.8503220713523247 0 0 0
182 1 4.418748985286104 9.110718554840389 -0.47060759013660813 0 0 0
241 2 3.181118544893203 10.13029151098613 1.7446468913635087 0 0 0
245 2 5.886510768513145 11.055990845448253 1.7108106450286509 0 0 0
190 1 8.560680715987775 9.198060250532013 1.788651697698282 0 0 0
249 1 7.28593877883537 10.268709043931342 -0.4995191082974878 0 0 0
247 1 11.199743766382745 10.184953950815057 1.7106561060873786 0 0 0
251 1 14.013446913964923 11.075941257444686 1.6840698316037104 0 0 0
255 1 15.35052549359979 10.164575079151593 -0.566194216773248 0 0 0
253 1 19.303552953211778 10.2444668677818 1.889910986468006 0 0 0
196 2 16.655004356426495 9.168441272766614 1.6596625204860924 0 0 0
258 1 18.016383781774707 11.156295608606847 -0.6181962643580051 0 0 0
244 1 0.5310577444295486 11.981197405147586 1.794279919537931 0 0 0
304 1 0.538908672577114 14.878401419067387 1.8969371679749552 0 0 0
306 2 1.8792873092166513 13.895013490523315 -0.5188936944914214 0 0 0
2953 2 19.33931814180667 7.294836967946599 6.337352539983204 0 0 0
301 1 3.272154995924372 12.939304772756813 1.7796504929972001 0 0 0
302 2 4.577428292816231 14.876002611987467 -0.552670977785589 0 0 0
305 1 6.013995284569112 13.737973375214153 1.7343597326170386 0 0 0
250 2 8.616181293274405 12.054681163175704 1.7072420048983732 0 0 0
310 1 8.617572357843567 14.88202672249497 1.7641642133689412 0 0 0
307 1 11.225284760023445 12.94446130077203 1.7745283365765312 0 0 0
308 2 12.589694630118867 14.821756531052841 -0.5991589516988748 0 0 0
311 1 14.042488494053803 13.908233084197 1.7223921504752888 0 0 0
256 2 16.653081649540376 12.04509514678497 1.6513154265977659 0 0 0
316 2 16.626981393957642 14.887726594207987 1.7039597007268434 0 0 0
318 2 18.026488790131566 13.94012976542534 -0.6215555509454561 0 0 0
2893 2 19.34362867052789 4.416432034482259 6.33732346239861 0 0 0
2766 1 1.9102615644809557 -0.30995265296075025 4.002393665023743 0 0 0
2762 1 4.581928444841012 0.6901163543893929 3.9459437698968847 0 0 0
2829 1 7.306164536924187 1.6403541603320746 3.94334719099467 0 0 0
2772 2 9.998550207560307 -0.314584969849651 3.9963311191320363 0 0 0
2768 1 12.64044069608018 0.5780774030815943 4.0473383113666905 0 0 0
2835 1 15.337530444309873 1.5251660245767948 3.961423571753871 0 0 0
2778 1 18.089855763620285 -0.39753383040173496 3.8360711331997734 0 0 0
2826 1 1.811610721067986 2.6264736967308853 4.00633906006874 0 0 0
2822 1 4.651252579100738 3.6014684567989086 4.083537722506513 0 0 0
2889 1 7.362629198910658 4.611659679482029 3.8863800179518906 0 0 0
2832 1 9.933969398920446 2.44640861090961 3.8520872378708653 0 0 0
2828 1 12.679425239390891 3.535876598006798 3.9702870803970756 0 0 0
2895 2 15.30450563155999 4.4001877772772335 4.025313794815711 0 0 0
2838 2 17.981304370173163 2.4683825747445454 4.014195462689393 0 0 0
2886 1 1.9367934658381374 5.443147346295813 3.9901791025791207 0 0 0
2946 2 1.9621939160863733 8.227987570883066 4.110371421645133 0 0 0
2882 2 4.590421107201775 6.364534545689256 4.001846469399255 0 0 0
2949 2 7.270032948244711 7.339396275138252 4.014672534800333 0 0 0
2892 2 10.022530167227028 5.386990246852676 3.9948363569322867 0 0 0
2952 2 9.970666644859392 8.23363405948346 4.008891714802066 0 0 0
2888 1 12.700540015880282 6.32265331841127 4.212501697582343 0 0 0
2955 2 15.266270437681893 7.328177077668329 3.992449901322212 0 0 0
2898 2 18.001863839611765 5.376633309212254 3.9822275535782055 0 0 0
2958 2 18.009432522197514 8.25498826096462 4.034881993192626 0 0 0
3003 2 -0.72062475447883 10.118661252246582 4.036001583863437 0 0 0
3006 1 1.8837683968400591 11.10144167998088 4.055381395299215 0 0 0
2942 2 4.629083578808044 9.172186765737628 4.01939205778198 0 0 0
3009 1 7.1998284697117425 10.166656872807174 4.072868896952267 0 0 0
3012 2 9.945202458704422 11.098298727385906 4.047703987004142 0 0 0
2948 1 12.591179414878049 9.175507944921055 4.081426942175658 0 0 0
3015 1 15.492255614529657 10.067251251435636 3.9577275897194104 0 0 0
3018 2 17.988849653458104 11.119165741936893 4.059864484970422 0 0 0
3066 2 1.9439141410120027 13.882371099002718 4.064082607038172 0 0 0
3002 2 4.558787027559832 12.01630193631065 4.038822766168216 0 0 0
3062 2 4.658059751510748 14.848817619914932 3.9910096453741 0 0 0
3069 2 7.269480765826203 12.973846052859791 4.0386322046651975 0 0 0
3072 2 9.96512294619118 13.952205463825532 4.0248140983546845 0 0 0
3008 1 12.612243917401823 12.154667958365945 4.149279164750246 0 0 0
3068 2 12.646596258386701 14.878030501491995 4.0539365075415805 0 0 0
3075 2 15.323657511227086 12.917888891751652 4.01412651454261 0 0 0
3078 2 18.023732560304477 13.948106006829924 4.004194562541061 0 0 0
2764 1 0.47058279924342195 0.698102890715437 6.3435227769174585 0 0 0
5526 2 1.8853954510888944 -0.2731584589273812 8.642593292554272 0 0 0
2761 2 3.293969358930987 -1.190623911341847 6.288135912856427 0 0 0
2821 1 3.2343107714747514 1.5583382116218032 6.398424723387819 0 0 0
5522 2 4.630207632086169 0.6711468037157455 8.622706900346186 0 0 0
2765 1 6.0185601771286175 -0.20565320069162563 6.432667283398487 0 0 0
2770 1 8.666398281461095 0.6324744190586036 6.316505711590317 0 0 0
5589 2 7.344063099815863 1.5747214741567515 8.604803627844985 0 0 0
2827 1 11.311792334848594 1.5892625381837013 6.296935338142138 0 0 0
5532 1 9.962103603277338 -0.5039181612781952 8.72095068570428 0 0 0
2771 2 14.037916363899885 -0.33226755591758006 6.283904206196624 0 0 0
5528 1 12.730099134632866 0.5138410650994341 8.552030071054999 0 0 0
5595 1 15.352102657053297 1.5511439391324253 8.660700506884831 0 0 0
2776 1 16.64561046578187 0.569477598487669 6.2943266828376085 0 0 0
5538 1 17.976266187597936 -0.41486414909051106 8.643821317637235 0 0 0
11233 2 19.343600133927367 7.347823043300364 20.16986219861586 0 0 0
2824 2 0.5431966031336959 3.419775611829519 6.396644916150324 0 0 0
5586 1 1.953048121561752 2.4637937340855833 8.706189619542785 0 0 0
2881 2 3.2568376024026193 4.391685674557122 6.353090244322843 0 0 0
5582 1 4.805311981378697 3.4814960966431494 8.561359818006524 0 0 0
2825 2 5.961666503077853 2.5325873461819475 6.269071404295232 0 0 0
2830 1 8.571650671754536 3.637202391084088 6.378874629192483 0 0 0
5649 2 7.305655179936298 4.435533958997246 8.628771658390685 0 0 0
2887 2 11.318798252811828 4.390379106344502 6.3272074450108295 0 0 0
5592 1 9.966169401208326 2.578322113349045 8.657857610356023 0 0 0
2831 1 14.010130455242258 2.5798371331947134 6.287747035530952 0 0 0
5588 1 12.704106084763723 3.536044473828598 8.717467072502581 0 0 0
5655 1 15.340971621588686 4.492917174211028 8.64458622767002 0 0 0
2836 1 16.758263889538526 3.5272104340038837 6.183134087325071 0 0 0
5598 1 18.018445301657053 2.5329959256095664 8.607117772754366 0 0 0
2884 1 0.47375359529614114 6.180297142552211 6.32207384956129 0 0 0
5646 1 1.988003181930287 5.388475013877102 8.647486608692402 0 0 0
5706 2 1.9492218620109008 8.181927868221411 8.615155749556815 0 0 0
2941 1 3.4687329750148947 7.141413503431949 6.362750194735565 0 0 0
5642 2 4.610691939980692 6.3272431087619765 8.686856976713502 0 0 0
2945 2 5.945978135580268 8.235667928865798 6.372229381477087 0 0 0
2885 2 5.968841031592308 5.394955364068972 6.279550204737516 0 0 0
2890 2 8.642805795923675 6.356767696946493 6.295058064926433 0 0 0
5709 1 7.266008827146142 7.098062610214958 8.525046983455765 0 0 0
2947 2 11.271588136756662 7.289704580473861 6.376430922612874 0 0 0
5652 2 9.99397591502769 5.402220729884375 8.629020180192649 0 0 0
5712 1 9.876304378564466 8.23829736018828 8.730502174461522 0 0 0
5648 1 12.587459297830282 6.267667952522814 8.591120629955489 0 0 0
2891 2 14.029567714549497 5.395839542033521 6.392838588492609 0 0 0
2951 2 13.948543159429931 8.292387644461098 6.377095993439616 0 0 0
5715 1 15.309917256169218 7.334470074389401 8.602246779248153 0 0 0
2896 1 16.61511235290584 6.449948017853615 6.117612054632499 0 0 0
5658 1 18.044809486488184 5.395436202975368 8.601508921140537 0 0 0
5718 1 18.051403026174036 8.330106404898725 8.595587202851744 0 0 0
19506 1 1.889725114988657 8.030151640271267 31.871861082606728 0 0 0
2944 1 0.564225796609148 9.150514857005486 6.36170642690408 0 0 0
5763 2 -0.7155451633813767 10.102012134387014 8.63588513746747 0 0 0
5766 2 1.9635846913802226 11.04912593983061 8.670939842008787 0 0 0
3001 1 3.4366623171287083 10.118833637285967 6.346489967938684 0 0 0
5702 1 4.549462254434413 9.189155283682329 8.67360008310459 0 0 0
3005 2 5.9977020256002564 11.118061333294673 6.339014394397648 0 0 0
2950 2 8.617659997496094 9.20065041502114 6.331844784396747 0 0 0
5769 1 7.25640234609491 10.194264397303758 8.534574617577876 0 0 0
3007 1 11.168593470296134 10.0845459880138 6.293750224879588 0 0 0
5772 2 9.931484599337725 11.079493145193641 8.623384121322667 0 0 0
5708 1 12.57547202321646 9.202762604474987 8.689676325642486 0 0 0
3011 1 14.019782069016273 11.086534899037368 6.382341409504274 0 0 0
5775 1 15.32763297986498 10.161269863617736 8.743884159687349 0 0 0
2956 2 16.65782975898144 9.249641420012239 6.360965192115236 0 0 0
5778 1 18.107417244972055 11.020716404599309 8.683711708377727 0 0 0
3004 2 0.6156183695932025 11.98641025404924 6.369946767750294 0 0 0
3064 1 0.5760854628884899 14.72967113395222 6.263189681743974 0 0 0
5826 2 1.939927172814979 13.939060620344623 8.619741694970871 0 0 0
5823 2 -0.7422849876608499 12.946769920044403 8.665227818783682 0 0 0
3061 1 3.3423328385464313 12.99585723697022 6.409507235180529 0 0 0
5762 2 4.623776863011259 12.055804895025151 8.637528390340544 0 0 0
5822 2 4.608885435457309 14.900680542292868 8.652675427874128 0 0 0
3065 2 5.9401163473601395 13.939539807512269 6.3690629522232385 0 0 0
3010 1 8.651803563863044 12.194742867531335 6.260184349874931 0 0 0
3070 2 8.626817982837292 14.902134880611595 6.398366424425694 0 0 0
5829 2 7.315102303735123 12.956272145497536 8.665046982988423 0 0 0
3067 2 11.28772905448297 12.99342263552299 6.378546853103666 0 0 0
5832 1 9.896879009203655 13.88993998431254 8.62424498790447 0 0 0
5768 1 12.637006357238498 12.030518018727808 8.637733422681007 0 0 0
5828 1 12.641448615559725 15.027248687176652 8.683899464381964 0 0 0
3071 2 13.97054047945532 13.915164097160734 6.398778813067718 0 0 0
5835 2 15.376560118445799 12.951526502937892 8.69543438103201 0 0 0
3016 1 16.668341403738285 12.16227137499206 6.2986579777787846 0 0 0
3076 2 16.694457913977836 14.888328488267849 6.361125778323462 0 0 0
5838 1 18.108477881822388 13.995778171514647 8.563220341973489 0 0 0
5524 2 0.5551936206628594 0.657363118157869 11.01905116497935 0 0 0
5521 1 3.2140276420499987 -1.06750601150467 10.89428073979615 0 0 0
5581 2 3.2817828320805376 1.6153622421871061 10.960553374511052 0 0 0
5525 2 5.947121960600517 -0.3075746919171005 10.93964078007374 0 0 0
5530 2 8.664653985518019 0.6455188279885742 10.929295661834535 0 0 0
5587 1 11.308957722778334 1.596314304469563 11.160289228853317 0 0 0
5531 1 13.998869998783995 -0.358020452613936 10.811745961834879 0 0 0
5593 1 19.283667448817972 1.4268563954581932 11.077345166774402 0 0 0
5536 2 16.650695563945632 0.6476130538776039 10.908689518649227 0 0 0
5584 1 0.6523295526529516 3.439021621720989 10.973399089076102 0 0 0
5641 2 3.282791050991375 4.459287263668507 10.932305401402207 0 0 0
5585 2 5.974514276584208 2.537844981321192 10.937794780744111 0 0 0
5590 1 8.601327072140897 3.4999557368839955 10.793899380909275 0 0 0
5647 2 11.314147422619339 4.401254307857986 10.945260199013847 0 0 0
5591 2 14.025386569392797 2.50657718027131 10.962972573098583 0 0 0
5653 2 19.318582646329695 4.457589646703452 10.894541551234513 0 0 0
5596 1 16.716082246658743 3.531405198963782 11.000702020462706 0 0 0
5644 1 0.5587189919076179 6.371496697421092 10.891404127638905 0 0 0
5645 1 5.9186634333104395 5.400465234269541 10.968258473850389 0 0 0
5701 1 3.178649536765035 7.266621263817571 10.976738025809423 0 0 0
5705 1 6.064770253402901 8.304559708615415 11.071308580519739 0 0 0
5650 2 8.607226618223272 6.297427315173207 10.971959471426837 0 0 0
5707 2 11.299577535572396 7.269760147057815 10.927809779494298 0 0 0
5651 2 14.015464107804942 5.397167449031821 10.920854483754672 0 0 0
5711 1 13.905296745326055 8.180511193932542 11.124924052342239 0 0 0
5656 1 16.676545424158277 6.418072232714815 10.9962035819529 0 0 0
5704 2 0.5902173105952522 9.153523829935953 10.96727892211912 0 0 0
5761 1 3.1549777731568973 10.269155684878935 11.019231804250373 0 0 0
5765 2 5.921408614609208 11.053136478604738 10.941699859713596 0 0 0
5710 2 8.601140609628281 9.13631880894248 10.974526574522516 0 0 0
5770 1 8.580434509220584 11.821558768725257 10.968790486004979 0 0 0
5767 2 11.265274275591832 10.133963087937971 10.98651952673587 0 0 0
5771 2 13.968447866335957 11.062480415073214 10.973732574394015 0 0 0
5716 2 16.634339440162442 9.181554382693363 11.001677286927725 0 0 0
5764 2 0.5891971282562269 11.996111801002435 10.96208159633005 0 0 0
5824 1 0.6698530052804388 14.7985457354131 10.912646416135589 0 0 0
5821 2 3.2816042721694156 12.974571724832462 10.941471192719748 0 0 0
5825 2 5.95160726848996 13.912291924575406 10.963440350929412 0 0 0
5830 1 8.576152598768925 14.912146762069213 10.953238292208885 0 0 0
5827 1 11.308015207427939 12.921015122876511 11.035765434203006 0 0 0
5831 1 14.012051998669495 13.828906186173658 11.026611650139724 0 0 0
5776 1 16.71686052293539 12.03088971100619 10.984323072300965 0 0 0
5836 1 16.732996519305622 14.853174046717236 11.006804758826187 0 0 0
8286 1 1.8435071151864888 -0.32634366091717815 13.361430243979976 0 0 0
8282 2 4.608208294328814 0.5960841751740613 13.268740021940504 0 0 0
8341 2 3.2565279930443136 1.539073588498288 15.620912597257812 0 0 0
8349 1 7.311382413554969 1.4868795144841198 13.139436287030707 0 0 0
8285 2 6.002219056442514 -0.39634291087245466 15.592221995701697 0 0 0
8290 1 8.707795444022572 0.5403502573032777 15.5221296065311 0 0 0
8292 2 9.971927019257397 -0.3497423957073038 13.292983974832184 0 0 0
8288 1 12.543267742714985 0.7436850618334048 13.366672881566224 0 0 0
8295 2 15.273894044500423 -1.1997878451318629 13.309413661486301 0 0 0
8355 1 15.50996047964873 1.5367660524211444 13.276343898422768 0 0 0
8298 2 17.984139773220704 -0.2996119293308208 13.264321936807422 0 0 0
8296 2 16.674980497469825 0.6562358732254361 15.620397097750415 0 0 0
8353 1 19.309224621733897 1.523677621971339 15.39947762742223 0 0 0
8346 1 1.9833764280244053 2.4663752605481823 13.306294725981717 0 0 0
8342 1 4.529266316974946 3.368355140079517 13.167380352310344 0 0 0
8345 1 5.848801865216795 2.336685733469422 15.568824275791465 0 0 0
8401 2 3.2505990973163286 4.3983894907069665 15.562240805797112 0 0 0
8405 1 5.890661110824257 5.288308230078867 15.612271682001856 0 0 0
8409 1 7.286372999164803 4.436625657883644 13.268414167286979 0 0 0
8350 1 8.651569486057184 3.4154773551918227 15.55742768681524 0 0 0
8352 2 9.914446567229131 2.5552335986592754 13.276628068546769 0 0 0
8407 2 11.23247798831789 4.4097616825659625 15.56183040131276 0 0 0
8348 2 12.651757541384388 3.4611835628063687 13.270031384404595 0 0 0
8415 1 15.27095433939741 4.474389011761385 13.23972322239416 0 0 0
8351 2 13.991675047917745 2.483466124386724 15.576347025458029 0 0 0
8411 1 13.794497580960439 5.222558003318927 15.571074562571278 0 0 0
8358 2 18.010652504844785 2.602362445039236 13.240089733359783 0 0 0
8356 2 16.647893089711474 3.5066664542026507 15.593420022138465 0 0 0
8413 1 19.186149111100107 4.525744546636201 15.523590516678395 0 0 0
8406 1 1.945010111235739 5.370340474093615 13.303095603048577 0 0 0
8466 2 1.905876843584559 8.19665918598556 13.329955941670365 0 0 0
8463 1 -0.7337315823637377 7.336716143904795 13.259986539224498 0 0 0
8402 1 4.584826720827557 6.313393976782519 13.310035685059647 0 0 0
8465 1 5.944914924957829 8.207003705886457 15.611467158544032 0 0 0
8469 2 7.25844655051944 7.2346057323918025 13.300392419603176 0 0 0
8410 1 8.580062470037667 6.339232271397018 15.587596836078726 0 0 0
8412 1 10.097374685325981 5.340536836173124 13.17793778177976 0 0 0
8472 2 9.950233590225217 8.192795988696052 13.28138804494258 0 0 0
8408 2 12.621085836397949 6.325586838389739 13.270873849704573 0 0 0
8467 1 11.335328982739398 7.327165627468508 15.553359895122332 0 0 0
8475 2 15.34418067488534 7.299026269137505 13.269480047481077 0 0 0
8471 1 14.011167921913405 8.204450299745048 15.47656333525847 0 0 0
8473 2 19.310563811744096 7.309654039095449 15.599720710942618 0 0 0
8418 2 17.9910282857217 5.489875082349345 13.263772383058877 0 0 0
8478 1 17.958405549021066 8.306589223857443 13.426290806009229 0 0 0
8416 1 16.67552557972631 6.336727189082815 15.586991401980677 0 0 0
8526 2 1.856051684585273 11.059202499581705 13.35114904664953 0 0 0
8462 1 4.573870513251409 9.245275358371881 13.284190438196175 0 0 0
8521 1 3.160654078261155 10.078183386146055 15.601000476336926 0 0 0
8529 2 7.238961492579441 10.090665321272176 13.318929864660914 0 0 0
8470 1 8.606642199368803 9.163735043695635 15.488923106305995 0 0 0
8532 2 9.933781327921587 11.081727973876568 13.308000982287995 0 0 0
8468 2 12.616781934133218 9.208272931499643 13.284385965333902 0 0 0
8527 1 11.42900600524387 10.225712523718428 15.538981615859205 0 0 0
8535 1 15.169525631233775 10.21234619325567 13.267269101615819 0 0 0
8531 2 13.99890566694313 11.099502205657188 15.59242790292855 0 0 0
8538 1 18.083615309621315 11.095202171139096 13.26762875365843 0 0 0
8476 2 16.61292269750858 9.223277444347502 15.62415261452112 0 0 0
8586 1 1.9669073266945836 13.813971182211109 13.214097792503214 0 0 0
8524 1 0.39430484397372845 12.019664057153179 15.52922346811855 0 0 0
8584 2 0.5889398513581923 14.837987176575869 15.608150067398261 0 0 0
8522 2 4.573746748113903 12.0091827380507 13.323177614592128 0 0 0
8582 2 4.563474666942695 14.854893515709193 13.283816666246205 0 0 0
8581 1 3.233098503864345 12.952330376944463 15.579423663972355 0 0 0
8585 1 5.91059203200238 13.89346131212249 15.565707939515951 0 0 0
8589 1 7.133355051955738 12.855824696004497 13.23058443714478 0 0 0
8530 1 8.586361418444582 12.042901824953656 15.603480533570286 0 0 0
8590 2 8.540512405042833 14.853344729839137 15.57328287915371 0 0 0
8592 1 9.922507677835757 13.883499731405763 13.33887299860549 0 0 0
8528 2 12.600157621781275 12.092995900319831 13.307926652508788 0 0 0
8588 1 12.660166862911112 14.927475826462967 13.318243627684916 0 0 0
8595 2 15.32849062675933 12.985489610345194 13.273095865329685 0 0 0
8591 2 13.969672456476335 13.95942250188158 15.61996631812683 0 0 0
8598 2 18.044998331175055 13.943603825057242 13.316846908294112 0 0 0
8536 1 16.590194546397846 12.16068399912798 15.539145927053072 0 0 0
8284 2 0.5604024532103449 0.6437933138222429 15.634283453424763 0 0 0
11046 2 1.9491689774118426 -0.3514926395019836 17.93393745734096 0 0 0
8281 1 3.3410971667557563 -1.1429951906307652 15.66674865649009 0 0 0
11042 2 4.627321555701605 0.6364306688473611 17.94705662861321 0 0 0
11109 1 7.24050248392697 1.4678195897253907 17.982511523115186 0 0 0
8347 2 11.290998431456938 1.5478598662866245 15.644177372117364 0 0 0
11052 2 9.983063993816941 -0.28508484874370965 17.931769749533025 0 0 0
8291 1 14.075307319749868 -0.27111262303483596 15.638777503345183 0 0 0
11048 1 12.665339635704317 0.722929660165613 18.000141260015717 0 0 0
11055 1 15.420727701871133 -1.185831232187956 17.97387850130501 0 0 0
11115 2 15.354694595854987 1.5911308729383733 17.950482386935974 0 0 0
11058 1 18.036427031363658 -0.4767250713856349 17.860219296166584 0 0 0
8344 1 0.5765735935473366 3.412941379036684 15.847902970777644 0 0 0
11106 2 1.926003041038667 2.479774521987772 17.959741333266862 0 0 0
11102 1 4.396895662831463 3.464029126905415 17.91634768848415 0 0 0
11169 1 7.265421335636781 4.4031837446019 17.88621347116036 0 0 0
11112 1 10.01008265016339 2.4619126086156955 17.914955779762906 0 0 0
11108 2 12.620057223326143 3.4399174659921323 17.92493573476998 0 0 0
11175 1 15.260678092099063 4.337489272490647 17.87675388787639 0 0 0
11118 1 17.95770635723131 2.549862867314612 17.865410519790267 0 0 0
8404 1 0.6117600728323216 6.374910306347045 15.652258654739223 0 0 0
11166 2 1.9554871585075617 5.408535858330101 17.92821375649939 0 0 0
11226 1 1.862276975116527 8.237283274710826 17.962555496553094 0 0 0
8461 1 3.1806641614508404 7.19019523921701 15.630065555169763 0 0 0
11162 1 4.717683789009332 6.425270231697072 18.058214701452208 0 0 0
11229 2 7.312388097901468 7.237665104259481 17.90932956097535 0 0 0
11172 1 10.039866729270756 5.341619551363074 17.84819399018918 0 0 0
11232 1 9.9793416470037 8.222034462691148 17.889079606604554 0 0 0
11168 2 12.60149336318873 6.312192465657967 17.86136311985483 0 0 0
11235 1 15.158016775408132 7.26012958353394 18.05374100439031 0 0 0
11178 2 17.983903985212393 5.353863909905035 17.88473675997762 0 0 0
11238 1 17.934629860323135 8.14506443757736 17.91998230711316 0 0 0
8464 2 0.5192423873127763 9.18738662352381 15.690760109980259 0 0 0
11286 1 1.8348598845135273 11.101138598563441 17.9896196261462 0 0 0
8525 1 5.892200354320496 11.035573253447609 15.632168518662906 0 0 0
11222 2 4.540429281293952 9.175591142194992 17.942540035496272 0 0 0
11289 1 7.18416493246123 9.998487433119998 17.987088676279868 0 0 0
11292 1 9.995831212348293 11.100856374261536 17.942931286975316 0 0 0
11228 2 12.624873557798644 9.194499842284095 17.851294017789854 0 0 0
11295 1 15.200199539942684 10.124614883312443 17.864134400112086 0 0 0
11298 1 18.00308144098615 11.111207541280056 17.92213973262521 0 0 0
8533 2 19.33127615889611 10.179401787374537 15.641331532055252 0 0 0
11346 1 1.8461036204130077 13.987858359162505 18.04155922302565 0 0 0
11282 1 4.556022484610771 11.975925247228218 17.973818222723416 0 0 0
11342 1 4.599734404154413 14.900100533018719 18.00662550413927 0 0 0
11349 1 7.284155705565831 12.963624805856622 17.924962116432624 0 0 0
8587 1 11.322639111062806 13.055744680841048 15.689139964301758 0 0 0
11352 2 9.948926437117844 13.93134177006187 17.952437140162118 0 0 0
11288 2 12.669133462238797 12.083986542457783 17.946717187841408 0 0 0
11348 1 12.667007459173593 14.96064520980189 17.81798357958712 0 0 0
11355 1 15.391600910890137 13.11093976244587 17.93555356227953 0 0 0
8593 1 19.306085603915477 12.987950068462599 15.667619729823942 0 0 0
8596 2 16.675342158926867 14.972213154597966 15.652311136298016 0 0 0
11358 2 18.0469117597395 13.9510871861617 17.956451760907992 0 0 0
11044 2 0.6226867412385229 0.6579721397659153 20.302278612189504 0 0 0
11101 2 3.3210316177410357 1.5761618553978813 20.296821033913744 0 0 0
11045 2 5.996393676505819 -0.3223782170636764 20.290771865093305 0 0 0
11050 2 8.64622933296167 0.6868890668116747 20.278049144906035 0 0 0
11107 2 11.330766569049775 1.6094629809692114 20.23366419920228 0 0 0
11051 2 14.017703214536233 -0.2910082579941313 20.261989800938277 0 0 0
16873 1 19.295285737418872 12.874275250648157 29.61096777330779 0 0 0
11056 1 16.716872365289444 0.5572133442669409 20.26897815862464 0 0 0
11104 1 0.7133176824514689 3.5619139211794186 20.07832341014167 0 0 0
11105 1 5.915709306754549 2.4940332545340915 20.237535008733282 0 0 0
11161 2 3.28655498249426 4.426998216978683 20.307425319370743 0 0 0
11110 1 8.679397574558838 3.4899544668343756 20.332548166618714 0 0 0
11167 1 11.370781677999407 4.438030801178714 20.222170147152077 0 0 0
11111 1 14.011251242422734 2.515701468611036 20.229722851985855 0 0 0
11116 1 16.639825924459466 3.5937812380664402 20.270607365836455 0 0 0
11173 1 19.338578673374137 4.67773951217268 20.264156588554407 0 0 0
11164 2 0.599287853985411 6.310220053187633 20.29317110408889 0 0 0
11221 1 3.2638106964877913 7.144526964736746 20.27135024995112 0 0 0
11225 2 5.931127548837396 8.210961963776302 20.289750417897828 0 0 0
11165 2 6.002520313951619 5.32870925705558 20.221143811521472 0 0 0
11170 1 8.577033516979174 6.320159468935545 20.229928301617555 0 0 0
11227 1 11.431649194880237 7.299927085944454 20.124432595668132 0 0 0
11171 2 13.972079921554112 5.3541534317111985 20.224118553353705 0 0 0
11231 2 13.966628753173119 8.24652035574826 20.24747690134963 0 0 0
11176 2 16.629739257136194 6.337553145197338 20.20398146016694 0 0 0
11224 2 0.549950632929493 9.19143832208286 20.232616321844425 0 0 0
11281 1 3.131477648206821 10.18532532344976 20.27978666173569 0 0 0
11285 1 5.906215242964838 10.971077855659416 20.241401363140618 0 0 0
11230 1 8.58713122025701 9.155881993253903 20.309115940561657 0 0 0
11287 1 11.338579561513118 10.171904821808873 20.18460047097581 0 0 0
11291 1 14.128169527858727 11.008349234369778 20.2028282589134 0 0 0
11236 2 16.648122089138955 9.198543206705331 20.193518314609285 0 0 0
11284 2 0.5060593800620257 12.047067842001187 20.211858852005335 0 0 0
11344 2 0.539036250169771 14.890796474308154 20.28508313448765 0 0 0
11341 2 3.2366967824570105 12.952866091317752 20.2571569473605 0 0 0
11345 1 5.78836811782082 13.98424043753868 20.31063100996856 0 0 0
11290 1 8.617159338241052 11.985145867704258 20.275085890539856 0 0 0
11350 1 8.61582977023459 14.856749411548861 20.25137972493131 0 0 0
11347 1 11.318375689972427 12.979043943974212 20.161459404854952 0 0 0
11351 1 14.028602855654661 13.942156377354681 20.23942308424845 0 0 0
11353 1 19.2966398906077 13.044896045063403 20.32847738806074 0 0 0
11296 2 16.692727907078705 12.047294392161092 20.2587001416735 0 0 0
11356 2 16.668262593231304 14.91483270252747 20.260881594018706 0 0 0
13804 2 0.590963349890296 0.6624282873316458 24.88902957288321 0 0 0
13806 1 2.0711356293903354 -0.3320283948003889 22.61820161917607 0 0 0
13863 1 -0.7041633235005146 1.6304874088267018 22.55476464691462 0 0 0
13802 1 4.609132406331218 0.5700508212808606 22.527641121014575 0 0 0
13805 1 5.802059514560985 -0.37150018392744144 25.072499433699036 0 0 0
13861 2 3.323166084375763 1.635754366252971 24.864814864190464 0 0 0
13810 2 8.597151416758528 0.6519877845831943 24.97025240053619 0 0 0
13869 1 7.476792904943172 1.577635817209297 22.661624791874175 0 0 0
13812 2 9.961169576066872 -0.33520401843636827 22.593743015151862 0 0 0
13867 1 11.169963135232095 1.6474991568058361 24.87342549082802 0 0 0
13808 1 12.568270222535084 0.5819814282632911 22.469867476573747 0 0 0
13811 2 13.913143688527114 -0.3366889552752389 24.843340716657856 0 0 0
13875 1 15.328774977349482 1.5148299792268807 22.725012025049935 0 0 0
13815 1 15.307096000939115 -1.2140850394682055 22.566492009517532 0 0 0
13816 2 16.678080677562185 0.669196205185075 24.93502158194294 0 0 0
13818 2 17.98439967456853 -0.26568632567787387 22.56781703372492 0 0 0
13864 1 0.6625217905711038 3.4857480978296342 24.921785781103203 0 0 0
13866 1 2.0672626706260617 2.560528544330607 22.590519495244358 0 0 0
13923 2 -0.6480095158580955 4.443171094243278 22.56374960670277 0 0 0
13862 1 4.743545187167861 3.6672829874920847 22.56057415657893 0 0 0