LAMMPS data file via write_data, version 2 Aug 2023, timestep = 6049, units = metal

38640 atoms
2 atom types

-0.74749153514228 79.6210612551425 xlo xhi
-1.2255772155353193 129.5012600255348 ylo yhi
-0.6236773801376393 64.37642477013793 zlo zhi

Masses

1 92.90600000000001
2 47.88

Atoms # atomic

4 1 0.596475911954517 0.7124742022121499 1.6243269644862703 0 0 0
61 2 3.2225916195211544 1.5798189388943302 1.7454905698049836 0 0 0
2 1 4.491296211928701 0.7479570397492812 -0.6037860077626492 0 0 0
5 1 5.955188131248189 -0.31842473635987656 1.5683311013344685 0 0 0
10 2 8.571424444271075 0.6378191988304424 1.6972073357534974 0 0 0
69 2 7.222884264046719 1.5880693795003782 -0.6024796250006058 0 0 0
7 1 11.368501583487635 -1.1686543636492253 1.6540814868220215 0 0 0
67 2 11.318158087985875 1.6110156623316283 1.6887453915039465 0 0 0
2833 1 19.34052996997893 1.524820774886214 6.329490338415123 0 0 0
11 2 13.986947304410744 -0.32278583478207795 1.7091099928262825 0 0 0
73 2 19.278973766209404 1.5794128060508217 1.6163933183538854 0 0 0
16 1 16.667958997558276 0.5469385073086658 1.634541298236056 0 0 0
64 2 0.5418106818437012 3.4584317067837893 1.7374443145142717 0 0 0
66 2 1.9094090656018103 2.5629523798462817 -0.5806337648899934 0 0 0
65 2 5.9080989887703605 2.547465667865902 1.7391980292693134 0 0 0
121 2 3.249151193274125 4.414546544003792 1.7501217926644757 0 0 0
62 2 4.596729622835526 3.4896255543749555 -0.6010395090895229 0 0 0
70 2 8.617487994536717 3.5147502637711456 1.6792926961354189 0 0 0
129 2 7.249753447717224 4.465672171706675 -0.6107510920057144 0 0 0
72 1 9.827883249413823 2.452468791866558 -0.5273968553080898 0 0 0
127 1 11.295606813516674 4.480540262147907 1.6597093922199309 0 0 0
71 2 13.988319281027403 2.5406006421550322 1.6893631486424023 0 0 0
135 1 15.21495238851041 4.423425397600154 -0.550839599606046 0 0 0
76 1 16.567314516825228 3.484451663618804 1.8321176878670324 0 0 0
133 1 19.308034372235895 4.3731166494132445 1.5387842481955496 0 0 0
186 2 1.8227538628065 8.197405077972165 -0.5937424440552568 0 0 0
124 1 0.4240728546287506 6.23962053842779 1.8306976796978727 0 0 0
126 1 1.8665997263385385 5.317035929485044 -0.5750715919111836 0 0 0
122 1 4.56154239763921 6.254490588988236 -0.5274758721966992 0 0 0
125 2 5.925883490149019 5.39665864895616 1.706153225520129 0 0 0
181 2 3.2052569508443094 7.26178796786927 1.722186370208418 0 0 0
185 2 5.9127976914162295 8.230303796713772 1.6880353585973673 0 0 0
130 2 8.622147249454315 6.384684434823177 1.6917111783135834 0 0 0
189 1 7.31282719668663 7.202124978734886 -0.5187241132940017 0 0 0
132 2 9.953950429795267 5.363185951844115 -0.601723571956155 0 0 0
187 1 11.213977129883403 7.269354217362538 1.7236915433774185 0 0 0
131 2 13.925896454394486 5.440470207192463 1.719581280105845 0 0 0
191 1 13.954596033544291 8.225835204048435 1.6857545692153943 0 0 0
193 1 19.292837669587534 7.27327657336692 1.7651183929380454 0 0 0
136 1 16.568514801750148 6.365565209440404 1.8364662295702363 0 0 0
198 1 18.02043705367102 8.187421902467966 -0.5804566926664486 0 0 0
138 2 17.893755718781822 5.393381915156302 -0.5919544983113312 0 0 0
184 1 0.6409266567169272 9.002576186907602 1.8503656643261726 0 0 0
182 1 4.418694770499628 9.110583190044345 -0.4705958661699476 0 0 0
241 2 3.181079560388671 10.130187045404291 1.7446658175290277 0 0 0
245 2 5.886459152628869 11.05589323055544 1.710817037718503 0 0 0
190 1 8.560601117953157 9.197950159296465 1.7886395253579879 0 0 0
249 1 7.285866064134447 10.2685941103974 -0.49952345044487023 0 0 0
247 1 11.199671168811738 10.184848551006326 1.7106516039740896 0 0 0
251 1 14.013376496700667 11.07587498125249 1.6840514181494248 0 0 0
255 1 15.350457701706675 10.164503612468215 -0.5661570614475551 0 0 0
253 1 19.30345511491425 10.244426956649875 1.8899204113221182 0 0 0
196 2 16.654936072083796 9.168377468592313 1.6596673097648686 0 0 0
2893 2 19.343584842250962 4.416433476194546 6.337358191605219 0 0 0
244 1 0.5310439593168443 11.981118202895592 1.7943109820352152 0 0 0
304 1 0.5389180168004538 14.878351169516757 1.8969398755061255 0 0 0
306 2 1.879280499752308 13.894938503794842 -0.5188949663252831 0 0 0
301 1 3.2721261066171543 12.939216788500351 1.7796519980078354 0 0 0
302 2 4.577417503423008 14.87592168058224 -0.552687350874911 0 0 0
305 1 6.013960790439506 13.737889373961865 1.7343376947478701 0 0 0
250 2 8.616124083689769 12.054583678364878 1.707233785227844 0 0 0
310 1 8.617543993292438 14.881944915913262 1.7641579323256762 0 0 0
307 1 11.225231596012756 12.944382267587724 1.7745186851478552 0 0 0
308 2 12.589650634701202 14.821706119280488 -0.5991551521744097 0 0 0
311 1 14.042424696916095 13.90819685476842 1.722378471307248 0 0 0
256 2 16.652999770266064 12.045054340324505 1.6513099446464337 0 0 0
316 2 16.62691608950091 14.887704680459347 1.703951285097876 0 0 0
313 2 19.343552543506178 12.986880025041533 1.6829187922706823 0 0 0
16873 1 19.295178218756973 12.874312126572997 29.611036729846678 0 0 0
2766 1 1.9101733236114362 -0.31002280876992266 4.002392149477695 0 0 0
2762 1 4.581833904810492 0.6900391152533034 3.945949576074914 0 0 0
2829 1 7.306086013338469 1.6402716677108484 3.9433866960851147 0 0 0
2772 2 9.998480583673688 -0.314657583361533 3.996407195050728 0 0 0
2768 1 12.640375895047764 0.57799862242007 4.047427452207676 0 0 0
2835 1 15.337500040726535 1.525083208818552 3.961518987989109 0 0 0
2778 1 18.08983343732693 -0.3976083550090088 3.83612936559415 0 0 0
2826 1 1.8115377113903541 2.626386484270031 4.006357205986532 0 0 0
2822 1 4.651182662847246 3.6013886493460214 4.083570695538569 0 0 0
2889 1 7.362569176612331 4.6115578109881525 3.886423206757968 0 0 0
2832 1 9.933904114885598 2.4463079267310777 3.852142082059272 0 0 0
2828 1 12.679379961375348 3.5357861688690435 3.970343554642602 0 0 0
2895 2 15.30445691470052 4.400101863269625 4.025361370653 0 0 0
2838 2 17.98125796930546 2.4683162700909187 4.014252808817479 0 0 0
2886 1 1.9367296229721156 5.443068465821408 3.9902561336794715 0 0 0
2946 2 1.9621555529341057 8.227900980966407 4.110429395636521 0 0 0
2882 2 4.590359829708236 6.364450395005636 4.001897548780803 0 0 0
2949 2 7.269976031094673 7.339300575083826 4.014703327921944 0 0 0
2892 2 10.022469489301434 5.3868951332232555 3.9948795770290255 0 0 0
2952 2 9.970606707787823 8.233536199803137 4.008895477023483 0 0 0
2888 1 12.700482263788253 6.322543514732853 4.212537897302036 0 0 0
2955 2 15.266203599917072 7.328104313230117 3.9924622978889404 0 0 0
2898 2 18.001808161917783 5.376577990121999 3.982241188507005 0 0 0
2958 2 18.00935804335915 8.254949808036143 4.034883429632215 0 0 0
3003 2 -0.7206360326836427 10.118574095315482 4.036041798916283 0 0 0
3006 1 1.8837454341839888 11.101348120074187 4.055414734549474 0 0 0
2942 2 4.629039421792541 9.17210463519918 4.019422675887236 0 0 0
3009 1 7.199778805998914 10.166573821233493 4.072867560628918 0 0 0
3012 2 9.945139091823345 11.098207648702404 4.047689198210409 0 0 0
2948 1 12.591116308452412 9.175419889637071 4.081405222725046 0 0 0
3015 1 15.492173585680089 10.067196107232725 3.957718046922222 0 0 0
3018 2 17.988756991954336 11.119138742479077 4.059872526077871 0 0 0
3066 2 1.9438988289177979 13.882303988510406 4.064086050432178 0 0 0
3002 2 4.55874394444524 12.016229599485667 4.038825137367797 0 0 0
3062 2 4.658036915557345 14.84875173196382 3.990987701402407 0 0 0
3069 2 7.2694349362352675 12.973767312114045 4.038621666208505 0 0 0
3072 2 9.965069608418203 13.952123175725326 4.024804992183646 0 0 0
3008 1 12.612178265710844 12.154595528331058 4.149252082876165 0 0 0
3068 2 12.646527271260432 14.877970250995865 4.053938160328651 0 0 0
3075 2 15.32357757059854 12.91783961728296 4.014119766711523 0 0 0
3078 2 18.023627140412206 13.948087973945414 4.004196865422998 0 0 0
2764 1 0.4705116885089767 0.6980604648819869 6.343570274227739 0 0 0
5526 2 1.8853012569279028 -0.273160495857613 8.642635826993217 0 0 0
2761 2 3.29386234340378 -1.1906424640239561 6.288149140457573 0 0 0
2821 1 3.234213864361717 1.5583064646348708 6.398454549383891 0 0 0
5522 2 4.630108555623901 0.6711478671183352 8.622744015818654 0 0 0
2765 1 6.018447110020946 -0.20568591095527267 6.432693406652487 0 0 0
2770 1 8.66630375662101 0.632435717127562 6.316585907755076 0 0 0
5589 2 7.343968187123397 1.574720319721675 8.604867079495405 0 0 0
2827 1 11.311737339683619 1.589223158689404 6.297021836404683 0 0 0
5532 1 9.962026914009275 -0.5039156283525209 8.721019903641656 0 0 0
2771 2 14.037875657258443 -0.33230646119626994 6.283995429257357 0 0 0
5528 1 12.730051854553297 0.5138311990284656 8.55212135003251 0 0 0
5595 1 15.352084129825593 1.551142325837306 8.660804741750862 0 0 0
2776 1 16.645589837556198 0.5694410466241376 6.29441969925109 0 0 0
5538 1 17.976248138131083 -0.4148304309375067 8.64393812690615 0 0 0
16876 1 16.553700519405453 14.782241379560933 29.601750144030788 0 0 0
2824 2 0.5431380874954254 3.419723196451421 6.396710895772276 0 0 0
5586 1 1.9529700619976085 2.463791039295673 8.706264572608308 0 0 0
2881 2 3.256775699527361 4.391634738944377 6.353156815964451 0 0 0
5582 1 4.805248399942273 3.4814861834587334 8.561409737248203 0 0 0
2825 2 5.961596436636249 2.53254096841536 6.269111281373036 0 0 0
2830 1 8.571592083904513 3.6371399397045963 6.378921946267036 0 0 0
5649 2 7.305607525553114 4.435504571166185 8.628831888380555 0 0 0
2887 2 11.318754316241899 4.390317045229182 6.327267619378275 0 0 0
5592 1 9.966098238486165 2.5782967724728145 8.6579450567805 0 0 0
2831 1 14.010099904773917 2.5797865158248325 6.28783266173487 0 0 0
5588 1 12.70406942404682 3.5360137113193435 8.71754847650065 0 0 0
5655 1 15.340944844780157 4.492901863266661 8.644653226374878 0 0 0
2836 1 16.758237014352694 3.527167244929087 6.183195527230425 0 0 0
5598 1 18.018416384586022 2.5330172627310676 8.607198366406212 0 0 0
16816 2 16.699611386419182 12.053580009612599 29.50175144075834 0 0 0
2884 1 0.47370994626875207 6.180233266198636 6.322152024192069 0 0 0
5646 1 1.9879408715839013 5.388468626090719 8.64758099255032 0 0 0
5706 2 1.949167409668095 8.181898383576783 8.615251033173035 0 0 0
2941 1 3.4686873890008383 7.141345889625801 6.362816075764808 0 0 0
5642 2 4.610648508263635 6.327214078553638 8.686926717971184 0 0 0
2945 2 5.945930279678875 8.235604788622007 6.372261628506067 0 0 0
2885 2 5.968783974823893 5.394897209524871 6.279605385541753 0 0 0
2890 2 8.642757792644076 6.356694271311288 6.295097261059094 0 0 0
5709 1 7.265976116994131 7.0980202354740625 8.52509309069684 0 0 0
2947 2 11.271533233007325 7.289632310622466 6.37645386512819 0 0 0
5652 2 9.993936316716486 5.402179824678354 8.629081074147534 0 0 0
5712 1 9.876259286016158 8.238247850024251 8.730534375368142 0 0 0
5648 1 12.587420634419544 6.267616387076028 8.59116553508211 0 0 0
2891 2 14.029541261511227 5.395778363090619 6.392884751220982 0 0 0
2951 2 13.948474863533004 8.292322920737709 6.377099336641348 0 0 0
5715 1 15.309866444268005 7.3344330380132465 8.60226192064578 0 0 0
2896 1 16.615076438008582 6.449899593369173 6.117621077390162 0 0 0
5658 1 18.044786611952432 5.395460754630387 8.601561701588608 0 0 0
5718 1 18.0513455454055 8.33010169622946 8.595596040553724 0 0 0
16871 2 13.962652112575414 13.921874981497625 29.52268823514612 0 0 0
2944 1 0.5642002960806192 9.150460140097016 6.361778223073637 0 0 0
5763 2 -0.7155803413385661 10.101978525939513 8.635971609976163 0 0 0
5766 2 1.9635368302378522 11.049089133288911 8.671002952915856 0 0 0
3001 1 3.436626193988715 10.118767481123628 6.346531884431636 0 0 0
5702 1 4.549413101098162 9.189098740447701 8.673653649393062 0 0 0
3005 2 5.997647535935184 11.118002562456446 6.339011058385359 0 0 0
2950 2 8.617606384167894 9.200573607904111 6.331850925458002 0 0 0
5769 1 7.2563378909270275 10.194207226869809 8.534577104131994 0 0 0
3007 1 11.168530630544769 10.084464280467044 6.293728212678629 0 0 0
5772 2 9.93141500313755 11.079433149813134 8.623375934152213 0 0 0
5708 1 12.575405464340259 9.202706302896509 8.689677012130357 0 0 0
3011 1 14.019694010753817 11.086475633517372 6.382325461007265 0 0 0
5775 1 15.32755074868502 10.161205017326639 8.743885047820195 0 0 0
2956 2 16.657752477467625 9.249593610480284 6.360953084803165 0 0 0
5778 1 18.107326236092316 11.020687376418966 8.683758375951134 0 0 0
3004 2 0.6156006695347249 11.98636120764508 6.3699838481323905 0 0 0
3064 1 0.5760801505626784 14.72961743592096 6.263199682331317 0 0 0
5826 2 1.9398945313326956 13.939018300871211 8.61976654131822 0 0 0
5823 2 -0.7423058570478461 12.946739516922252 8.665272744691952 0 0 0
3061 1 3.3422965600668433 12.995802793463705 6.409516054273537 0 0 0
5762 2 4.623722403957287 12.055748135829779 8.637546699096472 0 0 0
5822 2 4.608844604785698 14.900624609812239 8.652675124191873 0 0 0
3065 2 5.940073178869916 13.939483830343672 6.369049280647952 0 0 0
3010 1 8.651749514665147 12.194663073199983 6.260173008328824 0 0 0
3070 2 8.626762812880122 14.902068928550664 6.3983595347141975 0 0 0
5829 2 7.315032710889038 12.956214858302562 8.665047927773266 0 0 0
3067 2 11.287655644502367 12.993346589927 6.378538657959094 0 0 0
5832 1 9.896797403443427 13.88988232395377 8.624246568321416 0 0 0
5768 1 12.636914251546525 12.030448612521367 8.637735441972048 0 0 0
5828 1 12.64135911533707 15.027172289907217 8.68391211255657 0 0 0
3071 2 13.970458005197935 13.91510006156155 6.39878044047225 0 0 0
5835 2 15.376459304695159 12.951459720005396 8.695445368233004 0 0 0
3016 1 16.66824413562501 12.162218593486902 6.298664827023601 0 0 0
3076 2 16.694361181633656 14.888278671831252 6.361139967095159 0 0 0
5838 1 18.108369121366806 13.995744044663956 8.563250850767696 0 0 0
5524 2 0.5551087289396861 0.657353858954754 11.01912193918491 0 0 0
5521 1 3.2139335723238265 -1.0675028290482453 10.894313357891726 0 0 0
5581 2 3.281691859086947 1.6153680026588826 10.960618957641342 0 0 0
5525 2 5.94702344246579 -0.30754601231525935 10.939683419852306 0 0 0
5530 2 8.664575999354357 0.6455405866167666 10.929361773316886 0 0 0
5587 1 11.308904487700344 1.5963115782114934 11.160379938692609 0 0 0
5531 1 13.998820529278811 -0.3580253744312274 10.811822487909431 0 0 0
5593 1 19.283643910117707 1.426906060676098 11.077467342356279 0 0 0
5536 2 16.650668608999545 0.6476339750339041 10.908792214410314 0 0 0
5584 1 0.652256698681107 3.439026030565999 10.97349708457118 0 0 0
5641 2 3.282727147792551 4.459290719205467 10.932388457460481 0 0 0
5585 2 5.9744309264326745 2.53785919693837 10.93786323703622 0 0 0
5590 1 8.601266605040594 3.4999567179791238 10.79398235794217 0 0 0
5647 2 11.314106414715328 4.401243915153398 10.945344022098979 0 0 0
5591 2 14.025364865371884 2.506574610996302 10.963061319204643 0 0 0
5653 2 19.318577565555074 4.457641470903448 10.894641368506733 0 0 0
5596 1 16.716076921065095 3.5314410250318375 11.000783386755668 0 0 0
5644 1 0.5586324043738217 6.371483500780814 10.891530379079098 0 0 0
5645 1 5.918617209235101 5.40045962390521 10.968331915885367 0 0 0
5701 1 3.1785749734949436 7.266607699693399 10.976843557020084 0 0 0
5705 1 6.064711331022602 8.304528167620665 11.071358466856427 0 0 0
5650 2 8.607187552162962 6.29740781749446 10.972023625524349 0 0 0
5707 2 11.299536291487916 7.2697316075446015 10.927856921414692 0 0 0
5651 2 14.015432231417662 5.397149734374483 10.920911917069569 0 0 0
5711 1 13.905258670349372 8.180472296807922 11.1249479328993 0 0 0
5656 1 16.67653184659731 6.418087131783578 10.996246343490071 0 0 0
5704 2 0.5901650768188412 9.15351516540979 10.96737674402617 0 0 0
5761 1 3.154917886091377 10.269125838731112 11.019294916314564 0 0 0
5765 2 5.921341002213574 11.053097384681987 10.9417257386523 0 0 0
5710 2 8.601075630079633 9.136290690623532 10.974549000841675 0 0 0
5770 1 8.580353409901566 11.82151633259313 10.968787668216514 0 0 0
5767 2 11.265207499698873 10.133921752102651 10.986527702670294 0 0 0
5771 2 13.968375133620052 11.06243822297675 10.973739400235985 0 0 0
5716 2 16.63429149808767 9.181544971113174 11.001697406911674 0 0 0
5764 2 0.5891359697388425 11.99610144141415 10.962150179539153 0 0 0
5824 1 0.6698091930085392 14.798536594478044 10.91266718115487 0 0 0
5821 2 3.281550926131264 12.97453372904148 10.941503273987877 0 0 0
5825 2 5.951554160099772 13.91224629822013 10.963459994527057 0 0 0
5830 1 8.576075127795344 14.912099079089678 10.95325931933284 0 0 0
5827 1 11.307937685396158 12.920961118886044 11.035774139147588 0 0 0
5831 1 14.01195597139423 13.828854766133672 11.026624459853831 0 0 0
5776 1 16.71676421210752 12.030844630392831 10.98433031019036 0 0 0
5836 1 16.732912538847355 14.853134171668568 11.006843830802802 0 0 0
8286 1 1.8433951980903025 -0.32634042981399847 13.36148242011876 0 0 0
8282 2 4.608101750656001 0.5961000273937076 13.268790405397223 0 0 0
8341 2 3.25642129868308 1.5390981156508428 15.620971742054552 0 0 0
8349 1 7.3113116478460425 1.4869080765081313 13.139502894644512 0 0 0
8285 2 6.002103152248292 -0.39632988943947417 15.592256885620696 0 0 0
8290 1 8.707709774706473 0.5403685351362731 15.522181576817081 0 0 0
8292 2 9.971854015162716 -0.3497176694660253 13.29303597427627 0 0 0
8288 1 12.543222173851666 0.7437108549648668 13.366751000054943 0 0 0
8295 2 15.273836501563235 -1.19976373177706 13.309500659484303 0 0 0
8355 1 15.509928782053015 1.536789576157589 13.276427875099493 0 0 0
8298 2 17.984093804119148 -0.29956699554628824 13.264438123755742 0 0 0
8296 2 16.674932075312057 0.6562840597016262 15.620503732411466 0 0 0
8353 1 19.309188919472454 1.5237624207615625 15.399600826379576 0 0 0
8346 1 1.9832822971898518 2.466389736103573 13.306364613123073 0 0 0
8342 1 4.529192421916206 3.368376831483043 13.167464646620441 0 0 0
8345 1 5.84870901952181 2.3366990045250433 15.568886797179006 0 0 0
8401 2 3.2505289886686604 4.398421708275686 15.562339515288036 0 0 0
8405 1 5.890602093432091 5.288330552795933 15.612367002382896 0 0 0
8409 1 7.28631607871937 4.436632791272266 13.268508945128593 0 0 0
8350 1 8.65150999611349 3.4154911205524843 15.557511897416301 0 0 0
8352 2 9.914396490802508 2.5552626044155584 13.2767150104662 0 0 0
8407 2 11.232418478275706 4.40976804637542 15.561908804851557 0 0 0
8348 2 12.651723620888557 3.4612012915228103 13.270113875643341 0 0 0
8415 1 15.270937493301666 4.474424769560499 13.23979421166702 0 0 0
8351 2 13.991630234931199 2.4834821661384714 15.576430348288612 0 0 0
8411 1 13.794446695395598 5.222555605131692 15.57114955300273 0 0 0
8358 2 18.01062575612789 2.6024175355830472 13.24019753092017 0 0 0
8356 2 16.647850134274766 3.506716861839443 15.593522295827189 0 0 0
8413 1 19.18610544269552 4.525813491843876 15.523704949059164 0 0 0
8406 1 1.9449321288450099 5.37035412233455 13.303199414220222 0 0 0
8466 2 1.905807899880321 8.196678859450886 13.330066536685019 0 0 0
8463 1 -0.7338036830970693 7.336742120571453 13.260140735523692 0 0 0
8402 1 4.584770857520336 6.313405929459492 13.310124730482402 0 0 0
8465 1 5.944855007464142 8.207030798288423 15.611525723194372 0 0 0
8469 2 7.258398368309503 7.234604323278238 13.300453385034656 0 0 0
8410 1 8.580005372061049 6.33925517277176 15.587672382023205 0 0 0
8412 1 10.097322928212453 5.340554313168986 13.178013627688815 0 0 0
8472 2 9.950186498627742 8.192798197079508 13.281416996438791 0 0 0
8408 2 12.62105640952349 6.325593501507287 13.270936377078069 0 0 0
8467 1 11.335263602137019 7.327164423580676 15.553421519253263 0 0 0
8475 2 15.344152199267585 7.299048132507842 13.269517055970777 0 0 0
8471 1 14.011105304086154 8.204451014294724 15.476580512408132 0 0 0
8473 2 19.31052337993537 7.309716613607639 15.599794132962007 0 0 0
8418 2 17.991005499697327 5.489930439052793 13.263857439416316 0 0 0
8478 1 17.95839243414153 8.306628714123518 13.426316916146062 0 0 0
8416 1 16.675475212230698 6.336781936305882 15.587072816079433 0 0 0
8526 2 1.8559878955734284 11.059218650910704 13.351218064622675 0 0 0
8462 1 4.573804460640628 9.245272563493694 13.284256671605183 0 0 0
8521 1 3.1605840338206215 10.078228120558409 15.601059923375505 0 0 0
8529 2 7.238889208343141 10.090663653303617 13.318955954096559 0 0 0
8470 1 8.606579408219941 9.163763156959753 15.488938908919197 0 0 0
8532 2 9.933708911212904 11.081727641833988 13.30801531028923 0 0 0
8468 2 12.616728230032264 9.208270113311576 13.284401127941289 0 0 0
8527 1 11.428930001406478 10.225708096884754 15.538987201862733 0 0 0
8535 1 15.169477820393197 10.212348331474933 13.2672884018922 0 0 0
8531 2 13.998834366736498 11.099507636173392 15.592432687590087 0 0 0
8538 1 18.083565618181666 11.095240861145875 13.267661811729516 0 0 0
8476 2 16.612876441387506 9.22331520956103 15.624164738098893 0 0 0
8586 1 1.9668315794118112 13.813983262274832 13.21412239787286 0 0 0
8524 1 0.39422518118240896 12.01969314254058 15.529292586502564 0 0 0
8584 2 0.5888503031485883 14.838023483135 15.608182385448218 0 0 0
8522 2 4.573686171576373 12.009178897321325 13.323212673121093 0 0 0
8582 2 4.563409844154792 14.854887282800709 13.283839376787519 0 0 0
8581 1 3.233013854900757 12.952367246398909 15.579463924359745 0 0 0
8585 1 5.910518264752659 13.893470765206086 15.565743838519383 0 0 0
8589 1 7.133294532039957 12.855812588415077 13.230615344690328 0 0 0
8530 1 8.586297780717631 12.042921268412059 15.60351509455824 0 0 0
8590 2 8.540445524980246 14.853353526504756 15.573308810704196 0 0 0
8592 1 9.92243157301888 13.883484861823455 13.338892739785246 0 0 0
8528 2 12.600088768957006 12.092985169593423 13.307925608414296 0 0 0
8588 1 12.66007292729986 14.927464845398198 13.318264105191115 0 0 0
8595 2 15.32841478667099 12.985486394711723 13.273119035191705 0 0 0
8591 2 13.969593381633164 13.959433714542207 15.619979006742453 0 0 0
8598 2 18.044939291100636 13.943612705960374 13.316894308739167 0 0 0
8536 1 16.590145522495927 12.160713984412366 15.539165355118172 0 0 0
8284 2 0.5603003477395069 0.6437989178787645 15.634354536242835 0 0 0
11046 2 1.9490505051676745 -0.3514851966084849 17.934012036174916 0 0 0
8281 1 3.340964674255309 -1.1429759156101242 15.666793051610727 0 0 0
11042 2 4.627206468176229 0.6364285263734751 17.947098281569705 0 0 0
11109 1 7.240397393315389 1.4678028933747136 17.98255773477065 0 0 0
8347 2 11.2909427955727 1.5478750080402202 15.644252555217218 0 0 0
11052 2 9.982964896050047 -0.28509007818943344 17.931811598622897 0 0 0
8291 1 14.075253013319083 -0.2710914578028936 15.638851429596064 0 0 0
11048 1 12.665252304668458 0.7229339607183793 18.000221856977365 0 0 0
11055 1 15.420653856347995 -1.1857795759162975 17.973957441528057 0 0 0
11115 2 15.354625918398687 1.591175781587805 17.950575645139676 0 0 0
11058 1 18.03636350787497 -0.47662865630445783 17.860346805794975 0 0 0
8344 1 0.5764933470556277 3.4129649031502534 15.847998566235985 0 0 0
11106 2 1.9259086241624181 2.479782226319918 17.959823432246353 0 0 0
11102 1 4.396805997344746 3.4640427628180697 17.916428083545025 0 0 0
11169 1 7.265347512440084 4.403192077470297 17.886288460554983 0 0 0
11112 1 10.009998635508083 2.4619006046711482 17.91502564184117 0 0 0
11108 2 12.619986922354416 3.4399308490345355 17.92502126453256 0 0 0
11175 1 15.260620350765278 4.337533375391484 17.876849457246234 0 0 0
11118 1 17.957657963352375 2.5499398331887506 17.865539867037107 0 0 0
8404 1 0.6117009866152222 6.374938852350953 15.65237236495958 0 0 0
11166 2 1.9554114913864704 5.408555528060167 17.928314371250785 0 0 0
11226 1 1.8622149114597757 8.237311777582905 17.96263926740945 0 0 0
8461 1 3.1806098056373107 7.190223942744361 15.630159923180836 0 0 0
11162 1 4.717614920121836 6.425306839398047 18.0582952033349 0 0 0
11229 2 7.312306433155889 7.2376912573519485 17.909388713377833 0 0 0
11172 1 10.039804877329502 5.341617884688033 17.848269789927325 0 0 0
11232 1 9.979256067176395 8.222058953704412 17.88911750590868 0 0 0
11168 2 12.601424280364641 6.312202235030841 17.861420260208142 0 0 0
11235 1 15.15793432785357 7.260173406843292 18.053804224413927 0 0 0
11178 2 17.983841381595067 5.353929048411735 17.884839857187636 0 0 0
11238 1 17.934559040170473 8.145116105650898 17.920029109252763 0 0 0
8464 2 0.5191722104998183 9.18741768785966 15.690863943934348 0 0 0
11286 1 1.8347642593277547 11.101171624098455 17.98968033514407 0 0 0
8525 1 5.892121834748764 11.035608909580176 15.632210761644293 0 0 0
11222 2 4.540345303897049 9.175626987788304 17.942590542722805 0 0 0
11289 1 7.184071401193655 9.998525622406005 17.987119914715393 0 0 0
11292 1 9.995739204472352 11.100879013345779 17.94296115057679 0 0 0
11228 2 12.62479726318468 9.19450540426766 17.851310159428504 0 0 0
11295 1 15.200118181210359 10.12464155124893 17.86411692802451 0 0 0
11298 1 18.003002595848795 11.111246696381825 17.9221960573496 0 0 0
8533 2 19.331230224107223 10.179460697002467 15.641387192563613 0 0 0
11346 1 1.8459866816983581 13.987895842529165 18.0416082515796 0 0 0
11282 1 4.555918301933001 11.97597325770619 17.973871806904405 0 0 0
11342 1 4.5996275421457895 14.900131688333028 18.006669276272678 0 0 0
11349 1 7.284061277954919 12.96365763761516 17.925005378277067 0 0 0
8587 1 11.322578467390356 13.055734572404106 15.68916104021187 0 0 0
11352 2 9.948850437457708 13.931359453012597 17.952467593358698 0 0 0
11288 2 12.669048845538896 12.083989788261572 17.94673047598999 0 0 0
11348 1 12.666922005846914 14.96065921114258 17.818027072221312 0 0 0
11355 1 15.391512627483364 13.110953175920837 17.93556349355727 0 0 0
8593 1 19.30603829369095 12.987984050961995 15.667691847372259 0 0 0
8596 2 16.675263629619334 14.97223115554172 15.652344950957517 0 0 0
11358 2 18.046821174747276 13.951123680930666 17.956498586481654 0 0 0
11044 2 0.6225830437216158 0.6579239856656094 20.302381957478442 0 0 0
11101 2 3.320928003315781 1.5761305815669728 20.296881817625817 0 0 0
11045 2 5.996278486158694 -0.3224212819025535 20.290800724789396 0 0 0
11050 2 8.64612224395392 0.6868674438044945 20.278090882851146 0 0 0
11107 2 11.33066735444732 1.6094650508465147 20.233731749486626 0 0 0
11051 2 14.017631254992681 -0.2909535621785896 20.262069501998404 0 0 0
11056 1 16.71679986706332 0.5572956383219454 20.269101094793324 0 0 0
11104 1 0.7132311190041963 3.5618831840368173 20.078433645869804 0 0 0
11105 1 5.915610648043409 2.493998559990644 20.237571805451875 0 0 0
11161 2 3.2864620310973556 4.42698532228274 20.307497613013567 0 0 0
11110 1 8.679279859267856 3.4899422302357985 20.332593857522856 0 0 0
11167 1 11.370685554807178 4.438029548146031 20.222246746695003 0 0 0
11111 1 14.01116850876315 2.5157372688783153 20.229798728126326 0 0 0
19635 2 15.323472249240265 12.987185117781722 31.868376755481624 0 0 0
11116 1 16.639741668732174 3.593836609279681 20.27071814797356 0 0 0
11164 2 0.5992016949403425 6.310190557692145 20.293275362278553 0 0 0
11221 1 3.2637216807220844 7.144528522847444 20.27142985258065 0 0 0
11225 2 5.931027671832252 8.210977598893969 20.28979585795065 0 0 0
11165 2 6.0024269061296405 5.3287069555215485 20.221196434166867 0 0 0
11170 1 8.576943032375073 6.320160861976785 20.229975925286148 0 0 0
11227 1 11.43156153452919 7.2999457221790385 20.124477860903355 0 0 0
11171 2 13.971983754443194 5.354181560194616 20.224192015936843 0 0 0
11231 2 13.966532457171622 8.246553609195269 20.24751542996841 0 0 0
19638 2 17.99817757760354 13.949378399923447 31.83092717680108 0 0 0
11176 2 16.6296449027003 6.33761366518243 20.204064763957522 0 0 0
11224 2 0.549855123869349 9.191417809634622 20.232705644650636 0 0 0
11281 1 3.13136041158 10.185343935481182 20.279839526558437 0 0 0
11285 1 5.9060999699996595 10.971100951206225 20.241432394682594 0 0 0
11230 1 8.587044859953307 9.15590199051591 20.309133971098298 0 0 0
11287 1 11.338506487339819 10.171929373619243 20.18461645516847 0 0 0
11291 1 14.128098421365527 11.008374076334999 20.202852791876314 0 0 0
11236 2 16.648023477762656 9.198599207457816 20.193553592819107 0 0 0
11284 2 0.5059333308041889 12.04704512676789 20.211925959696792 0 0 0
11344 2 0.5389033894523219 14.890773398007415 20.285143003782427 0 0 0
11341 2 3.23656629063003 12.95288625405391 20.257202185468984 0 0 0
11345 1 5.788252445359997 13.984257972238732 20.310660890581943 0 0 0
11290 1 8.617067197131696 11.985158778605587 20.275109928529332 0 0 0
11350 1 8.615731616337639 14.856743665636717 20.251407902684033 0 0 0
11347 1 11.318304064577744 12.979065846346007 20.16149089257006 0 0 0
11351 1 14.028520746201034 13.942157881591324 20.239464294603803 0 0 0
11353 1 19.29655046198645 13.044949352722565 20.32851651439186 0 0 0
11296 2 16.69263550964335 12.047337973656022 20.258746194364033 0 0 0
11356 2 16.668165307216036 14.91486351863684 20.26093414716652 0 0 0
13804 2 0.5908186361496828 0.6623191803531527 24.889122256140062 0 0 0
13806 1 2.071005256906027 -0.33211228368904383 22.61829432545586 0 0 0
13863 1 -0.7042798794141907 1.6304134881562111 22.554846434420277 0 0 0
13802 1 4.608999681983192 0.5699694586737638 22.527679205720137 0 0 0
13805 1 5.8019059458216224 -0.37159660352527174 25.072531896100063 0 0 0
13861 2 3.323036237702051 1.63564080890889 24.864876986508182 0 0 0
13810 2 8.596983173146059 0.6519337018963307 24.970294825752344 0 0 0
13869 1 7.476662245613253 1.5775835912899683 22.661662365855722 0 0 0
13812 2 9.961032627378513 -0.33523072012724087 22.593800435847307 0 0 0
13867 1 11.169809070638284 1.6474678822043953 24.87346993581133 0 0 0
13808 1 12.568152691829157 0.5819968243709419 22.46993481509954 0 0 0
13811 2 13.913024361485173 -0.33663198148724127 24.843422959197806 0 0 0
13875 1 15.328683352033558 1.5148792946541525 22.725111288701203 0 0 0
13815 1 15.306996107796067 -1.2140293247802931 22.56658663338612 0 0 0
13816 2 16.677982216825743 0.6692904303864016 24.935134045696124 0 0 0
13818 2 17.984309223146113 -0.2655895670958416 22.56794548833884 0 0 0
13864 1 0.6624104023448717 3.4856474598845484 24.921853838331227 0 0 0
13866 1 2.0671642966645467 2.5604453317063074 22.590601479214744 0 0 0
13923 2 -0.6481119802901271 4.443100053015636 22.563840583679113 0 0 0
13862 1 4.743429848594822 3.6672384316060413 22.560599777997705 0 0 0
13921 2 3.3073417253787873 4.4774788088288595 24.887059810976417 0 0 0