 # Bcc Nb oriented X=[11-2], Y=[111], Z=[1-10].
  
       38640  atoms
           3  atom types
 
      0.000000000000      80.655107370000  xlo xhi
      0.000000000000     131.173078720000  ylo yhi
      0.000000000000      65.192747130000  zlo zhi
 
Masses
 
            1   92.90638000             # Nb
            2   47.86700000             # Ti
            3   180.94788000            # Ta
 
Atoms # atomic
 
         1    1        4.032755368500       0.000000000000       2.328312676897
         2    2        5.377007426850       1.901058636619       0.000000000000
         3    1        0.000000000000       0.000000000000       0.000000000000
         4    2        1.344252058350       1.901058636619       2.328312676897
         5    2        6.721258678650       0.950529974175       2.328312676897
         6    1        2.688503310150       0.950529974175       0.000000000000
         7    3       12.098266105500       0.000000000000       2.328312676897
         8    1       13.442518163850       1.901058636619       0.000000000000
         9    2        8.065510737000       0.000000000000       0.000000000000
        10    2        9.409762795350       1.901058636619       2.328312676897
        11    2       14.786769415650       0.950529974175       2.328312676897
        12    1       10.754014047150       0.950529974175       0.000000000000
        13    3       20.163776842500       0.000000000000       2.328312676897
        14    2       21.508028900850       1.901058636619       0.000000000000
        15    2       16.131021474000       0.000000000000       0.000000000000
        16    3       17.475273532350       1.901058636619       2.328312676897
        17    3       22.852280152650       0.950529974175       2.328312676897
        18    2       18.819524784150       0.950529974175       0.000000000000
        19    2       28.229287579500       0.000000000000       2.328312676897
        20    2       29.573539637850       1.901058636619       0.000000000000
        21    3       24.196532211000       0.000000000000       0.000000000000
        22    3       25.540784269350       1.901058636619       2.328312676897
        23    1       30.917790889650       0.950529974175       2.328312676897
        24    1       26.885035521150       0.950529974175       0.000000000000
        25    2       36.294798316500       0.000000000000       2.328312676897
        26    1       37.639050374850       1.901058636619       0.000000000000
        27    1       32.262042948000       0.000000000000       0.000000000000
        28    1       33.606295006350       1.901058636619       2.328312676897
        29    1       38.983301626650       0.950529974175       2.328312676897
        30    3       34.950546258150       0.950529974175       0.000000000000
        31    3       44.360309053500       0.000000000000       2.328312676897
        32    1       45.704561111850       1.901058636619       0.000000000000
        33    3       40.327553685000       0.000000000000       0.000000000000
        34    3       41.671805743350       1.901058636619       2.328312676897
        35    3       47.048812363650       0.950529974175       2.328312676897
        36    2       43.016056995150       0.950529974175       0.000000000000
        37    1       52.425819790500       0.000000000000       2.328312676897
        38    3       53.770071848850       1.901058636619       0.000000000000
        39    3       48.393064422000       0.000000000000       0.000000000000
        40    3       49.737316480350       1.901058636619       2.328312676897
        41    3       55.114323100650       0.950529974175       2.328312676897
        42    2       51.081567732150       0.950529974175       0.000000000000
        43    1       60.491330527500       0.000000000000       2.328312676897
        44    1       61.835582585850       1.901058636619       0.000000000000
        45    3       56.458575159000       0.000000000000       0.000000000000
        46    3       57.802827217350       1.901058636619       2.328312676897
        47    3       63.179833837650       0.950529974175       2.328312676897
        48    3       59.147078469150       0.950529974175       0.000000000000
        49    3       68.556841264500       0.000000000000       2.328312676897
        50    3       69.901093322850       1.901058636619       0.000000000000
        51    1       64.524085896000       0.000000000000       0.000000000000
        52    3       65.868337954350       1.901058636619       2.328312676897
        53    1       71.245344574650       0.950529974175       2.328312676897
        54    3       67.212589206150       0.950529974175       0.000000000000
        55    3       76.622352001500       0.000000000000       2.328312676897
        56    1       77.966604059850       1.901058636619       0.000000000000
        57    1       72.589596633000       0.000000000000       0.000000000000
        58    3       73.933848691350       1.901058636619       2.328312676897
        59    1       79.310855311650       0.950529974175       2.328312676897
        60    2       75.278099943150       0.950529974175       0.000000000000
        61    1        4.032755368500       2.851588610794       2.328312676897
        62    1        5.377007426850       4.752647247414       0.000000000000
        63    3        0.000000000000       2.851588610794       0.000000000000
        64    1        1.344252058350       4.752647247414       2.328312676897
        65    2        6.721258678650       3.802118584969       2.328312676897
        66    3        2.688503310150       3.802118584969       0.000000000000
        67    3       12.098266105500       2.851588610794       2.328312676897
        68    2       13.442518163850       4.752647247414       0.000000000000
        69    2        8.065510737000       2.851588610794       0.000000000000
        70    3        9.409762795350       4.752647247414       2.328312676897
        71    2       14.786769415650       3.802118584969       2.328312676897
        72    2       10.754014047150       3.802118584969       0.000000000000
        73    1       20.163776842500       2.851588610794       2.328312676897
        74    1       21.508028900850       4.752647247414       0.000000000000
        75    1       16.131021474000       2.851588610794       0.000000000000
        76    1       17.475273532350       4.752647247414       2.328312676897
        77    3       22.852280152650       3.802118584969       2.328312676897
        78    3       18.819524784150       3.802118584969       0.000000000000
        79    3       28.229287579500       2.851588610794       2.328312676897
        80    3       29.573539637850       4.752647247414       0.000000000000
        81    3       24.196532211000       2.851588610794       0.000000000000
        82    1       25.540784269350       4.752647247414       2.328312676897
        83    3       30.917790889650       3.802118584969       2.328312676897
        84    3       26.885035521150       3.802118584969       0.000000000000
        85    1       36.294798316500       2.851588610794       2.328312676897
        86    2       37.639050374850       4.752647247414       0.000000000000
        87    3       32.262042948000       2.851588610794       0.000000000000
        88    2       33.606295006350       4.752647247414       2.328312676897
        89    3       38.983301626650       3.802118584969       2.328312676897
        90    3       34.950546258150       3.802118584969       0.000000000000
        91    3       44.360309053500       2.851588610794       2.328312676897
        92    2       45.704561111850       4.752647247414       0.000000000000
        93    2       40.327553685000       2.851588610794       0.000000000000
        94    2       41.671805743350       4.752647247414       2.328312676897
        95    2       47.048812363650       3.802118584969       2.328312676897
        96    1       43.016056995150       3.802118584969       0.000000000000
        97    3       52.425819790500       2.851588610794       2.328312676897
        98    1       53.770071848850       4.752647247414       0.000000000000
        99    1       48.393064422000       2.851588610794       0.000000000000
       100    3       49.737316480350       4.752647247414       2.328312676897
       101    2       55.114323100650       3.802118584969       2.328312676897
       102    3       51.081567732150       3.802118584969       0.000000000000
       103    3       60.491330527500       2.851588610794       2.328312676897
       104    3       61.835582585850       4.752647247414       0.000000000000
       105    2       56.458575159000       2.851588610794       0.000000000000
       106    2       57.802827217350       4.752647247414       2.328312676897
       107    2       63.179833837650       3.802118584969       2.328312676897
       108    3       59.147078469150       3.802118584969       0.000000000000
       109    3       68.556841264500       2.851588610794       2.328312676897
       110    3       69.901093322850       4.752647247414       0.000000000000
       111    2       64.524085896000       2.851588610794       0.000000000000
       112    2       65.868337954350       4.752647247414       2.328312676897
       113    3       71.245344574650       3.802118584969       2.328312676897
       114    1       67.212589206150       3.802118584969       0.000000000000
       115    1       76.622352001500       2.851588610794       2.328312676897
       116    3       77.966604059850       4.752647247414       0.000000000000
       117    3       72.589596633000       2.851588610794       0.000000000000
       118    1       73.933848691350       4.752647247414       2.328312676897
       119    1       79.310855311650       3.802118584969       2.328312676897
       120    3       75.278099943150       3.802118584969       0.000000000000
       121    3        4.032755368500       5.703177221589       2.328312676897
       122    3        5.377007426850       7.604235858208       0.000000000000
       123    3        0.000000000000       5.703177221589       0.000000000000
       124    2        1.344252058350       7.604235858208       2.328312676897
       125    2        6.721258678650       6.653707195764       2.328312676897
       126    1        2.688503310150       6.653707195764       0.000000000000
       127    3       12.098266105500       5.703177221589       2.328312676897
       128    1       13.442518163850       7.604235858208       0.000000000000
       129    3        8.065510737000       5.703177221589       0.000000000000
       130    2        9.409762795350       7.604235858208       2.328312676897
       131    3       14.786769415650       6.653707195764       2.328312676897
       132    1       10.754014047150       6.653707195764       0.000000000000
       133    2       20.163776842500       5.703177221589       2.328312676897
       134    2       21.508028900850       7.604235858208       0.000000000000
       135    2       16.131021474000       5.703177221589       0.000000000000
       136    2       17.475273532350       7.604235858208       2.328312676897
       137    1       22.852280152650       6.653707195764       2.328312676897
       138    3       18.819524784150       6.653707195764       0.000000000000
       139    3       28.229287579500       5.703177221589       2.328312676897
       140    1       29.573539637850       7.604235858208       0.000000000000
       141    1       24.196532211000       5.703177221589       0.000000000000
       142    2       25.540784269350       7.604235858208       2.328312676897
       143    2       30.917790889650       6.653707195764       2.328312676897
       144    2       26.885035521150       6.653707195764       0.000000000000
       145    2       36.294798316500       5.703177221589       2.328312676897
       146    2       37.639050374850       7.604235858208       0.000000000000
       147    3       32.262042948000       5.703177221589       0.000000000000
       148    3       33.606295006350       7.604235858208       2.328312676897
       149    2       38.983301626650       6.653707195764       2.328312676897
       150    2       34.950546258150       6.653707195764       0.000000000000
       151    2       44.360309053500       5.703177221589       2.328312676897
       152    2       45.704561111850       7.604235858208       0.000000000000
       153    2       40.327553685000       5.703177221589       0.000000000000
       154    2       41.671805743350       7.604235858208       2.328312676897
       155    2       47.048812363650       6.653707195764       2.328312676897
       156    2       43.016056995150       6.653707195764       0.000000000000
       157    2       52.425819790500       5.703177221589       2.328312676897
       158    1       53.770071848850       7.604235858208       0.000000000000
       159    2       48.393064422000       5.703177221589       0.000000000000
       160    2       49.737316480350       7.604235858208       2.328312676897
       161    2       55.114323100650       6.653707195764       2.328312676897
       162    2       51.081567732150       6.653707195764       0.000000000000
       163    2       60.491330527500       5.703177221589       2.328312676897
       164    2       61.835582585850       7.604235858208       0.000000000000
       165    1       56.458575159000       5.703177221589       0.000000000000
       166    1       57.802827217350       7.604235858208       2.328312676897
       167    2       63.179833837650       6.653707195764       2.328312676897
       168    2       59.147078469150       6.653707195764       0.000000000000
       169    2       68.556841264500       5.703177221589       2.328312676897
       170    2       69.901093322850       7.604235858208       0.000000000000
       171    2       64.524085896000       5.703177221589       0.000000000000
       172    1       65.868337954350       7.604235858208       2.328312676897
       173    2       71.245344574650       6.653707195764       2.328312676897
       174    2       67.212589206150       6.653707195764       0.000000000000
       175    2       76.622352001500       5.703177221589       2.328312676897
       176    2       77.966604059850       7.604235858208       0.000000000000
       177    2       72.589596633000       5.703177221589       0.000000000000
       178    3       73.933848691350       7.604235858208       2.328312676897
       179    2       79.310855311650       6.653707195764       2.328312676897
       180    2       75.278099943150       6.653707195764       0.000000000000
       181    1        4.032755368500       8.554765832383       2.328312676897
       182    3        5.377007426850      10.455824469002       0.000000000000
       183    2        0.000000000000       8.554765832383       0.000000000000
       184    3        1.344252058350      10.455824469002       2.328312676897
       185    2        6.721258678650       9.505295806558       2.328312676897
       186    3        2.688503310150       9.505295806558       0.000000000000
       187    1       12.098266105500       8.554765832383       2.328312676897
       188    2       13.442518163850      10.455824469002       0.000000000000
       189    2        8.065510737000       8.554765832383       0.000000000000
       190    3        9.409762795350      10.455824469002       2.328312676897
       191    3       14.786769415650       9.505295806558       2.328312676897
       192    2       10.754014047150       9.505295806558       0.000000000000
       193    1       20.163776842500       8.554765832383       2.328312676897
       194    1       21.508028900850      10.455824469002       0.000000000000
       195    1       16.131021474000       8.554765832383       0.000000000000
       196    3       17.475273532350      10.455824469002       2.328312676897
       197    3       22.852280152650       9.505295806558       2.328312676897
       198    2       18.819524784150       9.505295806558       0.000000000000
       199    3       28.229287579500       8.554765832383       2.328312676897
       200    2       29.573539637850      10.455824469002       0.000000000000
       201    2       24.196532211000       8.554765832383       0.000000000000
       202    1       25.540784269350      10.455824469002       2.328312676897
       203    3       30.917790889650       9.505295806558       2.328312676897
       204    1       26.885035521150       9.505295806558       0.000000000000
       205    2       36.294798316500       8.554765832383       2.328312676897
       206    2       37.639050374850      10.455824469002       0.000000000000
       207    3       32.262042948000       8.554765832383       0.000000000000
       208    3       33.606295006350      10.455824469002       2.328312676897
       209    3       38.983301626650       9.505295806558       2.328312676897
       210    3       34.950546258150       9.505295806558       0.000000000000
       211    3       44.360309053500       8.554765832383       2.328312676897
       212    3       45.704561111850      10.455824469002       0.000000000000
       213    3       40.327553685000       8.554765832383       0.000000000000
       214    3       41.671805743350      10.455824469002       2.328312676897
       215    2       47.048812363650       9.505295806558       2.328312676897
       216    2       43.016056995150       9.505295806558       0.000000000000
       217    1       52.425819790500       8.554765832383       2.328312676897
       218    3       53.770071848850      10.455824469002       0.000000000000
       219    2       48.393064422000       8.554765832383       0.000000000000
       220    1       49.737316480350      10.455824469002       2.328312676897
       221    2       55.114323100650       9.505295806558       2.328312676897
       222    3       51.081567732150       9.505295806558       0.000000000000
       223    3       60.491330527500       8.554765832383       2.328312676897
       224    2       61.835582585850      10.455824469002       0.000000000000
       225    2       56.458575159000       8.554765832383       0.000000000000
       226    2       57.802827217350      10.455824469002       2.328312676897
       227    2       63.179833837650       9.505295806558       2.328312676897
       228    1       59.147078469150       9.505295806558       0.000000000000
       229    1       68.556841264500       8.554765832383       2.328312676897
       230    3       69.901093322850      10.455824469002       0.000000000000
       231    2       64.524085896000       8.554765832383       0.000000000000
       232    1       65.868337954350      10.455824469002       2.328312676897
       233    1       71.245344574650       9.505295806558       2.328312676897
       234    1       67.212589206150       9.505295806558       0.000000000000
       235    1       76.622352001500       8.554765832383       2.328312676897
       236    1       77.966604059850      10.455824469002       0.000000000000
       237    1       72.589596633000       8.554765832383       0.000000000000
       238    3       73.933848691350      10.455824469002       2.328312676897
       239    1       79.310855311650       9.505295806558       2.328312676897
       240    3       75.278099943150       9.505295806558       0.000000000000
       241    1        4.032755368500      11.406354443177       2.328312676897
       242    3        5.377007426850      13.307414391527       0.000000000000
       243    3        0.000000000000      11.406354443177       0.000000000000
       244    1        1.344252058350      13.307414391527       2.328312676897
       245    2        6.721258678650      12.356884417352       2.328312676897
       246    2        2.688503310150      12.356884417352       0.000000000000
       247    2       12.098266105500      11.406354443177       2.328312676897
       248    3       13.442518163850      13.307414391527       0.000000000000
       249    3        8.065510737000      11.406354443177       0.000000000000
       250    2        9.409762795350      13.307414391527       2.328312676897
       251    3       14.786769415650      12.356884417352       2.328312676897
       252    2       10.754014047150      12.356884417352       0.000000000000
       253    2       20.163776842500      11.406354443177       2.328312676897
       254    1       21.508028900850      13.307414391527       0.000000000000
       255    2       16.131021474000      11.406354443177       0.000000000000
       256    3       17.475273532350      13.307414391527       2.328312676897
       257    1       22.852280152650      12.356884417352       2.328312676897
       258    2       18.819524784150      12.356884417352       0.000000000000
       259    1       28.229287579500      11.406354443177       2.328312676897
       260    3       29.573539637850      13.307414391527       0.000000000000
       261    3       24.196532211000      11.406354443177       0.000000000000
       262    1       25.540784269350      13.307414391527       2.328312676897
       263    3       30.917790889650      12.356884417352       2.328312676897
       264    1       26.885035521150      12.356884417352       0.000000000000
       265    1       36.294798316500      11.406354443177       2.328312676897
       266    3       37.639050374850      13.307414391527       0.000000000000
       267    2       32.262042948000      11.406354443177       0.000000000000
       268    3       33.606295006350      13.307414391527       2.328312676897
       269    2       38.983301626650      12.356884417352       2.328312676897
       270    2       34.950546258150      12.356884417352       0.000000000000
       271    1       44.360309053500      11.406354443177       2.328312676897
       272    1       45.704561111850      13.307414391527       0.000000000000
       273    1       40.327553685000      11.406354443177       0.000000000000
       274    1       41.671805743350      13.307414391527       2.328312676897
       275    1       47.048812363650      12.356884417352       2.328312676897
       276    1       43.016056995150      12.356884417352       0.000000000000
       277    1       52.425819790500      11.406354443177       2.328312676897
       278    1       53.770071848850      13.307414391527       0.000000000000
       279    1       48.393064422000      11.406354443177       0.000000000000
       280    1       49.737316480350      13.307414391527       2.328312676897
       281    3       55.114323100650      12.356884417352       2.328312676897
       282    1       51.081567732150      12.356884417352       0.000000000000
       283    3       60.491330527500      11.406354443177       2.328312676897
       284    3       61.835582585850      13.307414391527       0.000000000000
       285    1       56.458575159000      11.406354443177       0.000000000000
       286    3       57.802827217350      13.307414391527       2.328312676897
       287    1       63.179833837650      12.356884417352       2.328312676897
       288    1       59.147078469150      12.356884417352       0.000000000000
       289    3       68.556841264500      11.406354443177       2.328312676897
       290    3       69.901093322850      13.307414391527       0.000000000000
       291    1       64.524085896000      11.406354443177       0.000000000000
       292    1       65.868337954350      13.307414391527       2.328312676897
       293    3       71.245344574650      12.356884417352       2.328312676897
       294    3       67.212589206150      12.356884417352       0.000000000000
       295    1       76.622352001500      11.406354443177       2.328312676897
       296    2       77.966604059850      13.307414391527       0.000000000000
       297    2       72.589596633000      11.406354443177       0.000000000000
       298    1       73.933848691350      13.307414391527       2.328312676897
       299    1       79.310855311650      12.356884417352       2.328312676897
       300    1       75.278099943150      12.356884417352       0.000000000000
       301    3        4.032755368500      14.257943053972       2.328312676897
       302    2        5.377007426850      16.159003002322       0.000000000000
       303    1        0.000000000000      14.257943053972       0.000000000000
       304    2        1.344252058350      16.159003002322       2.328312676897
       305    3        6.721258678650      15.208473028147       2.328312676897
       306    1        2.688503310150      15.208473028147       0.000000000000
       307    1       12.098266105500      14.257943053972       2.328312676897
       308    3       13.442518163850      16.159003002322       0.000000000000
       309    2        8.065510737000      14.257943053972       0.000000000000
       310    2        9.409762795350      16.159003002322       2.328312676897
       311    3       14.786769415650      15.208473028147       2.328312676897
       312    1       10.754014047150      15.208473028147       0.000000000000
       313    1       20.163776842500      14.257943053972       2.328312676897
       314    1       21.508028900850      16.159003002322       0.000000000000
       315    3       16.131021474000      14.257943053972       0.000000000000
       316    2       17.475273532350      16.159003002322       2.328312676897
       317    3       22.852280152650      15.208473028147       2.328312676897
       318    1       18.819524784150      15.208473028147       0.000000000000
       319    2       28.229287579500      14.257943053972       2.328312676897
       320    1       29.573539637850      16.159003002322       0.000000000000
       321    2       24.196532211000      14.257943053972       0.000000000000
       322    2       25.540784269350      16.159003002322       2.328312676897
       323    2       30.917790889650      15.208473028147       2.328312676897
       324    1       26.885035521150      15.208473028147       0.000000000000
       325    3       36.294798316500      14.257943053972       2.328312676897
       326    1       37.639050374850      16.159003002322       0.000000000000
       327    3       32.262042948000      14.257943053972       0.000000000000
       328    3       33.606295006350      16.159003002322       2.328312676897
       329    2       38.983301626650      15.208473028147       2.328312676897
       330    2       34.950546258150      15.208473028147       0.000000000000
       331    2       44.360309053500      14.257943053972       2.328312676897
       332    1       45.704561111850      16.159003002322       0.000000000000
       333    2       40.327553685000      14.257943053972       0.000000000000
       334    3       41.671805743350      16.159003002322       2.328312676897
       335    1       47.048812363650      15.208473028147       2.328312676897
       336    2       43.016056995150      15.208473028147       0.000000000000
       337    2       52.425819790500      14.257943053972       2.328312676897
       338    1       53.770071848850      16.159003002322       0.000000000000
       339    2       48.393064422000      14.257943053972       0.000000000000
       340    3       49.737316480350      16.159003002322       2.328312676897
       341    2       55.114323100650      15.208473028147       2.328312676897
       342    3       51.081567732150      15.208473028147       0.000000000000
       343    2       60.491330527500      14.257943053972       2.328312676897
       344    1       61.835582585850      16.159003002322       0.000000000000
       345    1       56.458575159000      14.257943053972       0.000000000000
       346    1       57.802827217350      16.159003002322       2.328312676897
       347    1       63.179833837650      15.208473028147       2.328312676897
       348    2       59.147078469150      15.208473028147       0.000000000000
       349    3       68.556841264500      14.257943053972       2.328312676897
       350    3       69.901093322850      16.159003002322       0.000000000000
       351    2       64.524085896000      14.257943053972       0.000000000000
       352    1       65.868337954350      16.159003002322       2.328312676897
       353    2       71.245344574650      15.208473028147       2.328312676897
       354    1       67.212589206150      15.208473028147       0.000000000000
       355    1       76.622352001500      14.257943053972       2.328312676897
       356    2       77.966604059850      16.159003002322       0.000000000000
       357    3       72.589596633000      14.257943053972       0.000000000000
       358    2       73.933848691350      16.159003002322       2.328312676897
       359    2       79.310855311650      15.208473028147       2.328312676897
       360    2       75.278099943150      15.208473028147       0.000000000000
       361    1        4.032755368500      17.109531664766       2.328312676897
       362    2        5.377007426850      19.010591613116       0.000000000000
       363    2        0.000000000000      17.109531664766       0.000000000000
       364    2        1.344252058350      19.010591613116       2.328312676897
       365    1        6.721258678650      18.060061638941       2.328312676897
       366    1        2.688503310150      18.060061638941       0.000000000000
       367    1       12.098266105500      17.109531664766       2.328312676897
       368    1       13.442518163850      19.010591613116       0.000000000000
       369    3        8.065510737000      17.109531664766       0.000000000000