LAMMPS data file via write_data, version 2 Aug 2023, timestep = 50030, units = metal

38640 atoms
3 atom types

-0.895207517054624 79.76877723705562 xlo xhi
-1.438952244302115 129.71463505430157 ylo yhi
-0.7212557044363079 64.47400309443658 zlo zhi

Masses

1 92.90600000000001
2 180.948
3 47.88

Atoms # atomic

4 3 0.40499080759194295 0.43715000680541416 1.5687538964430667 0 0 0
1 1 3.140017298638586 -1.4005463310398125 1.63637910317865 0 0 0
5 3 5.781134117572057 -0.4965406767498002 1.596622636571935 0 0 0
61 1 3.035335594550989 1.3558522220933833 1.5772340048339688 0 0 0
10 2 8.448218561728295 0.4603426905267205 1.6304545013803706 0 0 0
67 1 11.269412281560234 1.3273727554696082 1.6687160877546592 0 0 0
11 1 13.918280477007881 -0.5427339583081009 1.7243671066317694 0 0 0
16 1 16.553454564728767 0.3866678532140979 1.557230249942484 0 0 0
64 1 0.4844430205219431 3.22997933918976 1.6394253132467875 0 0 0
66 3 1.7913009632497952 2.3324262613226443 -0.7176382653203969 0 0 0
65 3 5.778574376277151 2.333535411285636 1.507214576542822 0 0 0
121 1 3.114234556574023 4.259083823154323 1.5908808787729478 0 0 0
70 1 8.396429253115924 3.333728741017139 1.6247511853445842 0 0 0
127 2 11.117777418677159 4.2553468605495315 1.6146053810085645 0 0 0
72 2 9.86621629200908 2.37486078125563 -0.6676852505995023 0 0 0
71 1 13.855678447638438 2.366305951107166 1.61705348530818 0 0 0
68 3 12.559049835660764 3.2750766243087375 -0.6801264827499581 0 0 0
78 3 17.94398445046599 2.292344462845623 -0.6995016069141555 0 0 0
76 2 16.621204010139174 3.3229689128386797 1.6253541352217813 0 0 0
133 3 19.268479503493644 4.246613245908079 1.6191950245274238 0 0 0
124 2 0.4153259896740361 6.145308820741203 1.5512536044558647 0 0 0
125 1 5.791684716888229 5.14023316452041 1.600154148383288 0 0 0
181 3 3.080530552519064 7.079766889917536 1.5743130352866783 0 0 0
185 1 5.7051830607117395 8.048057340775658 1.6688079629056307 0 0 0
122 1 4.393546062835879 6.187008011983554 -0.7203523368546633 0 0 0
130 2 8.520726368630852 6.1356457219011595 1.6038632461143536 0 0 0
187 2 11.192527908643848 7.128200924446936 1.6252964093207047 0 0 0
128 2 12.554991355268522 6.106649306094864 -0.6846306820111114 0 0 0
131 1 13.87430770910757 5.136582290877424 1.6776489016817504 0 0 0
191 2 13.905189938540472 8.018749497341565 1.5904139774472805 0 0 0
195 1 15.26010532895661 7.080848575624962 -0.7182293963537421 0 0 0
193 1 19.159801880504837 7.0552768188870765 1.5864201765055241 0 0 0
136 3 16.523384614998726 6.150803223444531 1.5834922875363244 0 0 0
184 2 0.4457494717509948 8.985917592472491 1.5478410403499077 0 0 0
182 1 4.4557850035627755 8.899715764770919 -0.7139052043659114 0 0 0
241 3 3.119965442472745 9.950750214570018 1.5453539157242255 0 0 0
245 1 5.7682714214092226 10.838319172840443 1.6045584403230595 0 0 0
190 2 8.493287722379756 9.023262224301794 1.6010793322539338 0 0 0
247 1 11.202226769272341 9.995059492387519 1.603527471787222 0 0 0
252 1 9.769088828877075 10.912645784658142 -0.6827582696891851 0 0 0
251 1 13.926369062048645 10.89039900447997 1.6541950729052195 0 0 0
196 2 16.62582598377429 9.01729022770969 1.6154872094316846 0 0 0
258 2 17.974354942960062 10.939366528666557 -0.6541879403153185 0 0 0
244 1 0.5786941142500682 11.825496286783551 1.622977014022153 0 0 0
304 2 0.5104846690228663 14.715890054775254 1.6390834119554285 0 0 0
306 2 1.8172662872587213 13.758668518080267 -0.6898465688749684 0 0 0
242 2 4.42029722470412 11.842732130433152 -0.6736992773942638 0 0 0
301 3 3.115707887902725 12.824003760935105 1.6146863687445918 0 0 0
305 2 5.777472792674612 13.734020626046817 1.66466632698661 0 0 0
250 2 8.463423231001732 11.910752956084348 1.6980255933214392 0 0 0
310 3 8.45907801175426 14.714656007609882 1.5857637486187877 0 0 0
307 2 11.155167868128844 12.855865065015236 1.625391134152211 0 0 0
312 3 9.857832712980786 13.72888113679724 -0.7048223371877957 0 0 0
308 3 12.563064719490272 14.730868031274717 -0.6222987134646782 0 0 0
311 1 13.937167677053514 13.757959499466583 1.6838213652188239 0 0 0
256 3 16.558732010527123 11.825962150435828 1.5860364789571253 0 0 0
316 2 16.661347392765478 14.596359695209078 1.6268051637838343 0 0 0
313 3 19.268936292165144 12.777497981234827 1.6119208412862218 0 0 0
2763 1 -0.8559621048727126 -1.4126333367611883 4.006493539328909 0 0 0
2766 3 1.766577475403373 -0.5095376996627954 3.8875727501031543 0 0 0
2762 2 4.401712035767424 0.49955830507775256 3.9346342475829754 0 0 0
2769 3 7.1182130894885365 -1.4215797757321313 3.943692255048129 0 0 0
2829 2 7.059702318075589 1.395253071212994 3.904211475037722 0 0 0
2772 3 9.838033388918403 -0.5104938199839751 3.9125378217087556 0 0 0
2768 3 12.540029763542973 0.3998292312151237 3.976455887213409 0 0 0
2835 2 15.217826853902006 1.4133837044583588 3.943827186786347 0 0 0
2778 2 17.811589445264076 -0.5297960969847162 3.944837638425481 0 0 0
2826 3 1.7742319858990645 2.3445344018749816 3.9009138893519273 0 0 0
2822 3 4.4649129107915755 3.3217946474663957 3.89068989084205 0 0 0
2889 1 7.103333336154018 4.2644499167220005 3.9118954778326485 0 0 0
2832 2 9.872061895149914 2.3288802782491818 3.9479036463062256 0 0 0
2828 2 12.522045059872648 3.327498217116996 4.013266143215118 0 0 0
2895 3 15.18581850824958 4.293568535455715 3.912238700161631 0 0 0
2838 1 17.895054715526754 2.3953721711542855 4.051404016479273 0 0 0
2886 2 1.7525705180984361 5.2082783424546175 3.8948222858245236 0 0 0
2946 2 1.8222823876785945 8.083387156407076 3.925948368895738 0 0 0
2882 2 4.3967017895537825 6.19755448335501 3.9173211863321944 0 0 0
2949 2 7.1351437699531655 7.168433196431732 3.9215833854057527 0 0 0
2892 3 9.820976326340391 5.210941924290763 3.942261743119764 0 0 0
2952 2 9.83051336519062 8.039530488556048 3.936426462666468 0 0 0
2888 3 12.574896478609192 6.159810022547466 3.8935420885240504 0 0 0
2955 1 15.339374182941777 7.106977017500901 3.8950888898481955 0 0 0
2898 2 17.860353109792563 5.215580067816028 3.906155745586588 0 0 0
2958 3 17.961355983802605 8.078488321675886 3.941859832449752 0 0 0
3003 2 -0.8832594514532554 9.953957664391359 3.927008506913414 0 0 0
3006 3 1.7933496030418081 10.898538390552915 3.8916906824411237 0 0 0
2942 3 4.452936514654683 9.02198128680993 3.9295931384259566 0 0 0
3009 3 7.157678984858288 9.982307589918227 3.9020052294267744 0 0 0
3012 3 9.88824586253026 10.875235572197232 3.9223640940658875 0 0 0
2948 2 12.497962071998542 8.97881360042936 3.9595046761415196 0 0 0
3015 1 15.209633079887032 9.970555556937782 3.9609761511067685 0 0 0
3018 1 17.977211139874633 10.9324891841036 3.7715269895628287 0 0 0
3063 2 -0.889484828798217 12.847894309757349 3.8874331110726867 0 0 0
3066 3 1.8261947011288813 13.752507739258284 3.9534122122784883 0 0 0
3002 3 4.49261949613186 11.873118517063826 3.8967089646868134 0 0 0
3062 1 4.446786700371579 14.70825629281876 4.00491569203292 0 0 0
3069 1 7.157950595395398 12.709869710855124 4.14981591756238 0 0 0
3072 3 9.773173460294304 13.743162313946435 3.9316623626260983 0 0 0
3008 1 12.509093661540804 11.868289867236665 3.9699080296071108 0 0 0
3068 3 12.483528889330772 14.697202245193996 3.9059745931485486 0 0 0
3075 3 15.22573532392404 12.776602631785657 3.9448050603681066 0 0 0
3078 3 17.94805437256901 13.721356731725432 3.9431825726265206 0 0 0
2764 2 0.5301796559561948 0.47572639845254727 6.177940097097128 0 0 0
5526 2 1.8380916723292176 -0.47945153855626466 8.631025012817021 0 0 0
2761 2 3.1213014726566826 -1.3902163992597922 6.2025858983416295 0 0 0
2821 3 3.1667135234644643 1.4457506637179356 6.2369810289193275 0 0 0
5522 3 4.46581756235042 0.46999221868515706 8.570655138876974 0 0 0
2765 2 5.821636251576987 -0.42101703573482174 6.2869370549760415 0 0 0
2770 2 8.562898497326563 0.4545739119333938 6.200054869990607 0 0 0
5529 1 7.246275395087171 -1.28551399257761 8.620909638107696 0 0 0
5589 3 7.154819907817085 1.445276933868319 8.563713730901297 0 0 0
2827 3 11.195857087926159 1.3956735809599006 6.26632931882296 0 0 0
5532 3 9.855074951144568 -0.5250285101984707 8.561436091401896 0 0 0
5528 3 12.514430475591416 0.44021675827639273 8.578272867466312 0 0 0
19515 2 15.20338875642633 7.163107790312907 31.87314814323865 0 0 0
2771 1 13.921647618158397 -0.5893762312794452 6.327016912429073 0 0 0
5595 3 15.187770775780349 1.4227412811231002 8.61439565466429 0 0 0
2833 1 19.18486538106046 1.514585202125264 6.302825158367982 0 0 0
2776 3 16.54070683074461 0.46080833878865035 6.273274756364735 0 0 0
5538 1 17.638958855841096 -0.46167480469993705 8.593463139368856 0 0 0
2824 1 0.44442576965259983 3.2964256004389965 6.157381056391239 0 0 0
5586 2 1.8107608791654246 2.32421544483571 8.5114453438887 0 0 0
2881 1 3.150307276498845 4.224595271169697 6.156450382527954 0 0 0
5582 2 4.510008371547837 3.257915435726278 8.552896101099732 0 0 0
2825 3 5.851673552103707 2.4148122569477497 6.2176414197276575 0 0 0
2830 1 8.507258348611886 3.3455617443089976 6.299651975291363 0 0 0
5649 3 7.190454238646733 4.313128146793255 8.540870237816717 0 0 0
2887 3 11.146194214801211 4.2237684648983755 6.2691184683103245 0 0 0
5592 1 9.764564795545558 2.2392086001344715 8.500246139386084 0 0 0
5588 2 12.537954230031259 3.285909455427136 8.6185672171377 0 0 0
2831 2 13.872002904475734 2.2880197000424918 6.314743494059858 0 0 0
5655 3 15.217725061123344 4.25527327215554 8.60858979854933 0 0 0
2836 3 16.51220868409829 3.3150074288995457 6.241558363814022 0 0 0
5598 3 17.88403072260519 2.343843058954198 8.590313571719419 0 0 0
5658 1 17.861617539888336 5.09268783542018 8.505475129204138 0 0 0
2893 3 19.254313327778533 4.261194424009819 6.255194947564304 0 0 0
2884 2 0.4267935960814492 6.167674561023068 6.2266284460617864 0 0 0
5646 2 1.8546282318521023 5.185789948083192 8.590632812313777 0 0 0
5706 1 1.7968123097724567 8.06048804507641 8.505285904768419 0 0 0
2885 1 5.797927920917969 5.209758663919107 6.257677687555008 0 0 0
2941 3 3.1243511016222314 7.0651197478300105 6.289930423128686 0 0 0
2945 1 5.682115967414694 8.12982776360623 6.203350143399765 0 0 0
5642 1 4.5409363257894935 6.136136194815556 8.653408485151141 0 0 0
2890 2 8.523893019229137 6.182449276296058 6.259358322497231 0 0 0
5709 1 7.234011681791543 7.069469045800405 8.663319331196172 0 0 0
2947 2 11.242808817323285 7.024079783038035 6.2234814649070245 0 0 0
5652 2 9.905711834480305 5.193630451190899 8.61543445432884 0 0 0
5712 1 9.880924231865054 8.048126062157015 8.57770902451781 0 0 0
2891 2 13.83240734042674 5.1413183467987755 6.236873398261464 0 0 0
2951 2 13.89206955635 8.07049111291539 6.278201819045021 0 0 0
5648 1 12.68109644059164 6.172592611118322 8.616885759237272 0 0 0
5715 3 15.24590101012817 7.1257237510212015 8.604830005296082 0 0 0
2953 1 19.23416694421784 7.063432995170782 6.236682047823027 0 0 0
2896 1 16.500363296206807 6.103587912834039 6.315013518016375 0 0 0
5718 1 17.86489680317205 8.020952444679589 8.697443012261433 0 0 0
2944 1 0.46192508661383014 9.029082901369787 6.268445975132554 0 0 0
5766 1 1.8127742714093156 10.952864261356986 8.691211202797112 0 0 0
3001 3 3.0840133302340718 9.954802848879522 6.257791542902307 0 0 0
3005 3 5.804011808579448 10.89325712055865 6.251662651955094 0 0 0
5702 1 4.442384322189579 9.143754378565763 8.526932367792247 0 0 0
2950 1 8.485870458590695 9.118081895637227 6.174053149679871 0 0 0
5769 2 7.200389198991406 9.987732502747752 8.550064182041721 0 0 0
3007 3 11.194602416990746 9.90109317997725 6.290367039400218 0 0 0
5772 1 9.939683762088313 11.013348143135877 8.537404629696796 0 0 0
5708 1 12.550256574600526 9.008861223096615 8.599892818365797 0 0 0
3011 1 13.767416187147992 10.991958894981261 6.331855769690977 0 0 0
5775 1 15.27978565607465 9.950043005668029 8.625373260286745 0 0 0
2956 2 16.62815495097398 8.999134589715448 6.290283340712968 0 0 0
5778 3 17.929406613721945 10.91648110458441 8.526712157933021 0 0 0
3004 2 0.46511926034817963 11.878841461644065 6.196900315642052 0 0 0
3064 3 0.44763321710546544 14.71534068800496 6.245538808993764 0 0 0
5826 1 1.770499521049536 13.88783457570853 8.513123998090082 0 0 0
3061 1 3.238243939204681 12.701648581043806 6.163575498414032 0 0 0
3065 3 5.798514527179417 13.783296327366196 6.272014606641191 0 0 0
5762 3 4.469658927552647 11.895452611051384 8.559182601562961 0 0 0
5822 1 4.412873939470725 14.727903949111884 8.500456157974659 0 0 0
3010 3 8.516338654968814 11.83365804586319 6.289229392693549 0 0 0
3070 3 8.472336495216163 14.721684017185805 6.283306329785173 0 0 0
5829 2 7.178125764435938 12.815628822616873 8.542941369981493 0 0 0
3067 2 11.108217670771497 12.788529468513014 6.241771989953902 0 0 0
5832 3 9.846763384434384 13.744251824893091 8.603424509568645 0 0 0
5768 3 12.526784668399367 11.851506904280178 8.630554977031599 0 0 0
5828 1 12.459223702947385 14.621753422113756 8.567861236536642 0 0 0
3071 1 13.891715786431716 13.938008512899124 6.0918310417127035 0 0 0
5835 2 15.211744313728895 12.84265393949751 8.510920273736604 0 0 0
3016 1 16.585789803179246 11.83771248127617 6.206346381581861 0 0 0
3076 2 16.575819740461647 14.642475860023453 6.231528828169205 0 0 0
5838 2 17.93302079461521 13.760087381260636 8.637713879707215 0 0 0
16876 3 16.599111373576626 14.697389612753998 29.507483806720032 0 0 0
5524 3 0.4687141594192529 0.4392141654177586 10.910632628662915 0 0 0
5525 2 5.80822382027506 -0.46019394585273266 10.917854166543238 0 0 0
5581 2 3.1264180396161274 1.3714280504813132 10.88410923447863 0 0 0
5530 3 8.505007675894698 0.48779008838077687 10.932117424753054 0 0 0
5527 2 11.140281203449026 -1.402738883825572 10.898023685469171 0 0 0
5587 2 11.15697386444881 1.4304506390798055 10.868380607874732 0 0 0
5531 1 13.951269791167642 -0.4068647498792335 10.772875785294266 0 0 0
5593 2 19.24426409828277 1.4041726064424536 10.915154752908096 0 0 0
5536 3 16.54810117084442 0.46010820935020624 10.963912742015838 0 0 0
5584 2 0.46931214124311393 3.271470580126242 10.877354842035407 0 0 0
5641 3 3.1532833568446854 4.234367689059137 10.93517283977692 0 0 0
5585 1 5.874120646034841 2.4140939677000848 10.81031889393625 0 0 0
5590 2 8.514345096835635 3.343369465227113 10.870812635333701 0 0 0
5647 1 11.265033235772508 4.319624734404661 11.032738678328426 0 0 0
5591 3 13.859370009369608 2.3579610479043343 10.977626030028828 0 0 0
5653 2 19.215710195198348 4.253119383161522 10.930173412378695 0 0 0
5596 1 16.433198826825034 3.1922084082405764 10.77012208865945 0 0 0
5644 1 0.47453612573802795 6.13033960259275 10.906571030053888 0 0 0
5701 1 3.1964385574867435 7.106996230471189 10.904933048399846 0 0 0
5645 3 5.877865324477391 5.212459676873086 10.922254539042894 0 0 0
5705 1 5.897628696285512 8.039300719042847 10.934934531718563 0 0 0
5650 3 8.568827188442635 6.202264853707959 10.955400086181418 0 0 0
5707 1 11.212728004189438 7.08595091529571 10.942074538721814 0 0 0
5651 3 13.882075059825725 5.2375884945724 10.935064748264322 0 0 0
5711 1 14.13417506251985 8.003107485928483 10.990650314408947 0 0 0
5656 3 16.62164705076391 6.0734717033904655 10.90904508658735 0 0 0
5704 1 0.4088062141997305 9.03065416979036 10.86698658834363 0 0 0
5761 3 3.1174191399239826 9.927384651844088 10.880435734636942 0 0 0
5765 2 5.811274967840308 10.956948005674068 10.877613026313758 0 0 0
5710 1 8.540074082585706 9.03165424242473 10.917463605825185 0 0 0
5767 1 11.253549595574684 9.956373598724692 10.923878264868955 0 0 0
5771 1 13.887254768258243 10.935697393094651 10.909132845658158 0 0 0
5773 1 19.18450280996543 10.118123580229275 10.827352349771646 0 0 0
5716 3 16.614895375496644 9.033559979535559 10.9112803208938 0 0 0
5764 3 0.4144479515606584 11.848785813694839 10.899199722228788 0 0 0
5824 1 0.4491150557062603 14.661939909068188 10.856086100875304 0 0 0
5821 2 3.1279950476843332 12.786161721927385 10.855712509466047 0 0 0
5825 2 5.835948931664902 13.814833125686402 10.878146858171613 0 0 0
5770 3 8.518476875314827 11.843535092436781 10.876567499980185 0 0 0
5830 2 8.56236873573267 14.66970446296493 10.892727165581812 0 0 0
5827 1 11.146640510455287 12.811284941794948 10.99218754925626 0 0 0
5831 1 13.85830781330173 13.834899170634909 10.871366908250737 0 0 0
5833 3 19.251455184640633 12.850087728098593 10.937115162077129 0 0 0
5776 2 16.605433549287675 11.89361467788558 10.861241673464958 0 0 0
5836 2 16.516925938057163 14.840531096201513 10.855464903165641 0 0 0
8283 3 -0.8820965013867853 -1.4037909638030666 13.216856448589402 0 0 0
8286 3 1.824451351173721 -0.49810887837117046 13.250690792159533 0 0 0
8284 3 0.448970352728575 0.45118143310049064 15.535081912538852 0 0 0
8282 1 4.467146978027271 0.31621616662025276 13.29195952923198 0 0 0
8349 2 7.159704977422658 1.4009258514308294 13.242329297590883 0 0 0
8289 3 7.162806174905892 -1.4362104286662116 13.249077312870599 0 0 0
8292 3 9.833664043727603 -0.4862160286233942 13.270716906900718 0 0 0
8288 1 12.496848654691489 0.4528729354031702 13.256739631708415 0 0 0
8295 3 15.192837253670342 -1.4201688953801703 13.224393256134041 0 0 0
8355 1 15.216550414729417 1.2730581753013097 13.263911256108761 0 0 0
8298 3 17.910387528861527 -0.4871058954251066 13.232655958345719 0 0 0
8296 3 16.59181410410499 0.48953872337733295 15.570621789384772 0 0 0
8293 2 19.202995842221462 -1.4325142349792241 15.497009866610112 0 0 0
8346 2 1.788320470398717 2.2931934137918573 13.267781169762708 0 0 0
8403 1 -0.882639200316109 4.270998370171773 13.227445772715656 0 0 0
8342 1 4.469840174367549 3.3164728040530704 13.246218686314878 0 0 0
8401 3 3.139333689775807 4.250887108772522 15.508968796429658 0 0 0
8409 1 7.241535412905586 4.332690909465806 13.226611073320642 0 0 0
8352 2 9.849500731113517 2.3224995607413472 13.280905628408734 0 0 0
8348 1 12.557791816244704 3.361708076264991 13.226281686671369 0 0 0
8415 2 15.257937251308546 4.232504299236158 13.214814524827284 0 0 0
8358 2 17.886423045970496 2.35949769856565 13.249810933068842 0 0 0
8406 1 1.8346294828764194 5.207000281248629 13.203228111600845 0 0 0
8466 2 1.7932032553465205 8.105614769054066 13.187111955713172 0 0 0
8404 1 0.4890452958581494 6.129559715115402 15.560527116366893 0 0 0
8402 1 4.4922858448904535 6.103618259346929 13.183266883071676 0 0 0
8461 2 3.156673059086425 7.159089732627807 15.568393586541342 0 0 0
8469 1 7.223830460800814 7.133054076276991 13.223343885586305 0 0 0
8412 1 9.83909975827308 5.224344012923267 13.284838043945717 0 0 0
8472 1 9.862114402082353 8.03358737149664 13.260376598677242 0 0 0
8408 1 12.660811376374566 6.178369325135444 13.27880602779417 0 0 0
8475 3 15.271001878398264 7.098012427169509 13.27514848586947 0 0 0
8471 2 14.018955240142843 8.1843577623467 15.556384967174163 0 0 0
8418 1 17.896116822329503 5.2759131981522005 13.246825485557943 0 0 0
8478 1 17.827534440030085 8.054098823796865 13.20923698153308 0 0 0
8523 1 -0.8707655608163247 9.93710847506467 13.24628163130229 0 0 0
8526 1 1.8401619309406514 10.951388668612344 13.131714093134407 0 0 0
8464 1 0.4170963877307735 8.995018752957819 15.523843753396735 0 0 0
8462 2 4.474201571657696 9.04699492157589 13.244180225754386 0 0 0
8521 3 3.0828870851839607 9.985384382883769 15.541790498663785 0 0 0
8525 3 5.800689810012413 10.966277442724031 15.541333681154311 0 0 0
8529 2 7.1728036071837185 10.037239345899904 13.279156453471211 0 0 0
8532 2 9.855974387149038 10.958327254382409 13.258731023717809 0 0 0
8468 2 12.5812701772744 9.089111609845274 13.307114330071174 0 0 0
8535 3 15.244259233555566 9.999016389034585 13.22876025513227 0 0 0
8531 3 13.875835512329962 10.963328333356717 15.565363331037522 0 0 0
8538 2 17.90508403201835 10.939597074773479 13.2324243336325 0 0 0
8476 3 16.651895815812956 8.992878885019708 15.534898636037722 0 0 0
8586 1 1.8004414858698796 13.775705480526916 13.226977869701132 0 0 0
8524 2 0.4775692586275887 11.828327138886626 15.564866267508206 0 0 0
8522 1 4.522440250878075 11.8781348858487 13.24513991351976 0 0 0
8582 1 4.4673561414954275 14.709169970679902 13.158328591098398 0 0 0
8581 2 3.1771963992145666 12.802881990350677 15.564656008498721 0 0 0
8589 3 7.157220410329643 12.85145225005214 13.21281070466314 0 0 0
8590 3 8.489753929469613 14.739808680495088 15.523025897471234 0 0 0
8530 3 8.53677974837685 11.877378969896625 15.57034385242025 0 0 0
8592 3 9.852184342270158 13.775342073240118 13.2242432303352 0 0 0
8588 2 12.516733248707867 14.823673479596245 13.210356075051392 0 0 0
8587 1 11.16215286428704 12.834015992817257 15.414273980152897 0 0 0
8528 3 12.556795865994262 11.901666883795777 13.21901694057095 0 0 0
8595 2 15.20658437957531 12.831606736800257 13.239208035937198 0 0 0
8591 1 13.955773815837569 13.783655673955554 15.53656370488313 0 0 0
8598 1 17.89632319654425 13.814300911371419 13.3352260969087 0 0 0
8593 3 19.24848738318091 12.82863827390564 15.562811175288077 0 0 0
8596 3 16.530320519098566 14.73182134936549 15.566874516327529 0 0 0
11046 1 1.75475622119495 -0.4263103414635643 17.838197855533217 0 0 0
11103 3 -0.8409991840274957 1.4207398182228044 17.895993327182914 0 0 0
8285 3 5.801077515402552 -0.4958911162242977 15.582943696283765 0 0 0
8341 3 3.147696484141476 1.3690043534918495 15.598304611701293 0 0 0
11042 2 4.583101448579368 0.37241646611088397 17.958492750565057 0 0 0
8290 2 8.469929982095492 0.43040275320163035 15.623866549276942 0 0 0
11109 3 7.163028310075303 1.4328445649909898 17.910891222558064 0 0 0
8347 1 11.205823121379767 1.414788978777509 15.59813613212562 0 0 0
11052 3 9.875425755489927 -0.49851981068142714 17.868231490989217 0 0 0
11048 1 12.49996372200368 0.41951442898836855 17.97649355830582 0 0 0
8291 2 13.971995055405982 -0.5291109536853869 15.636054536582447 0 0 0
11115 2 15.243607433772778 1.3805211133829318 17.917081626185436 0 0 0
11058 1 17.826516583535444 -0.4527184414468506 17.876346724588366 0 0 0
8344 1 0.5069847862720417 3.2138832795746755 15.655179684892074 0 0 0
11106 1 1.8459820252959567 2.613941333861531 17.88994845377784 0 0 0
8345 1 5.706214777192567 2.3007290718608635 15.692131913117402 0 0 0
11102 3 4.5086153034455005 3.2956975252682392 17.90586486638255 0 0 0
8350 2 8.43711320589337 3.3194809798822336 15.616845984820108 0 0 0
11169 3 7.170403098945714 4.279697121141299 17.912213452418264 0 0 0
8407 1 11.21764485625805 4.27371760752666 15.73543086497723 0 0 0
11112 2 9.82546905871756 2.359496602231024 17.884560858412875 0 0 0
8351 2 13.917961144991805 2.3827794962702624 15.598642180666497 0 0 0
11108 3 12.567873257465743 3.2872896470516197 17.898659859770994 0 0 0
11175 3 15.244596087596177 4.24531910173682 17.933886857153183 0 0 0
8356 1 16.58692081595121 3.3265482485981064 15.67510058434849 0 0 0
11118 2 17.996508753435975 2.428934097671747 17.89899750312491 0 0 0
11166 3 1.8196547197027733 5.30807139036815 17.8734629035699 0 0 0
11226 1 1.8048019235863868 8.133004571076441 17.874758596170985 0 0 0
16871 2 13.964664285505192 13.774145870822416 29.540786399279597 0 0 0
8405 1 5.795511365004234 5.216181055164771 15.663083147186137 0 0 0
11162 1 4.490569636602093 6.062528913560207 17.86575395057467 0 0 0
8465 2 5.85120436679586 8.16038958211021 15.62981324080019 0 0 0
8410 2 8.496467007206737 6.201356857330614 15.683572888856949 0 0 0
11229 3 7.144672951895249 7.141020028160854 17.91551354659049 0 0 0
8467 2 11.262801395665454 7.1707342962326805 15.643891431645637 0 0 0
11172 3 9.870432071125881 5.223440105559382 17.914637947766693 0 0 0
11232 3 9.857749011490386 8.086985786132791 17.890903402388616 0 0 0
8411 2 13.91237586145761 5.24544924531002 15.645685608816239 0 0 0
11168 3 12.622139365448431 6.18214085468569 17.930503294270437 0 0 0
11235 1 15.348543827710733 7.050337146156906 17.87085955267508 0 0 0
8416 1 16.71709296878339 6.236499139015745 15.61109759397104 0 0 0
11178 3 17.96341249651921 5.215226644735692 17.886591357033396 0 0 0
11238 3 17.93468978601333 8.089686674916306 17.89172025364526 0 0 0
11286 1 1.8072200891680974 10.893229683693317 17.881748702590237 0 0 0
11222 3 4.426804986232598 8.965609128865358 17.890263983814563 0 0 0
8470 2 8.58961225648689 9.075487764732413 15.605398746523532 0 0 0
11289 2 7.118874678107911 9.95832730342801 17.896230511230236 0 0 0
8527 3 11.212577142886756 10.02956188196854 15.58267226889418 0 0 0
11292 1 9.863342103804927 10.852158569345274 17.851211360772723 0 0 0
11228 2 12.557102113954015 9.013186250438514 17.81805402595932 0 0 0
11295 3 15.268828588662972 9.916864984859473 17.917636193576513 0 0 0
8533 2 19.238249953048083 9.994945407582577 15.605868665324307 0 0 0
11298 3 17.93960643290766 10.972840710960758 17.917630939893904 0 0 0
8584 2 0.452270209010592 14.672609549745154 15.586534264488305 0 0 0
11346 2 1.8007251102316686 13.744805022162875 17.90260281543234 0 0 0
11282 2 4.501381335502982 11.787896502076299 17.902115843134546 0 0 0
11342 1 4.490125780962744 14.772631997719294 18.020890605014365 0 0 0
8585 1 5.933692934571043 13.752875301824188 15.582381549227195 0 0 0
11349 1 7.172960979987378 12.921130781299604 17.760643948918293 0 0 0
11352 1 9.825721508458999 13.815919121801533 17.77258749296424 0 0 0
11288 1 12.55531711237491 11.852247924608823 17.83689329713448 0 0 0
11348 1 12.553325873390152 14.793040208006133 17.859792623530964 0 0 0
11355 1 15.215232622544805 12.742338345759393 17.900708292253647 0 0 0
8536 2 16.55617589568776 11.774708308246641 15.617071764925923 0 0 0
11358 1 17.92646167819322 13.798215879893274 17.765911607444494 0 0 0
11044 1 0.4563377736193518 0.5710982546900722 20.149907816031742 0 0 0
11041 3 3.128450940775429 -1.3678778392208268 20.203557202002905 0 0 0
11101 1 3.1151901344642887 1.4999965452324844 20.21670001722932 0 0 0
11045 3 5.888292390389193 -0.4356031421938886 20.252981431561594 0 0 0
11050 1 8.510157844041677 0.3754516548730209 20.16625348399181 0 0 0
11107 1 11.140137298165994 1.3993487701400409 20.298648631674652 0 0 0
11047 3 11.20962777043844 -1.4331676896397365 20.23159322039831 0 0 0
11051 3 13.889735144216674 -0.4553642950919212 20.22787853791307 0 0 0
11056 3 16.58370846802226 0.47531321020369655 20.217539595589393 0 0 0
11104 3 0.43918988637298295 3.335502779569852 20.242034893562526 0 0 0
11105 2 5.818210878382601 2.3858160121058827 20.22674783568312 0 0 0
11161 3 3.1884451974566552 4.290284536405254 20.2714458567877 0 0 0
11110 2 8.542097085165144 3.351813435837844 20.21752468209288 0 0 0
11167 1 11.260698231350775 4.243426076075409 20.13374706863452 0 0 0
11111 2 13.897137026920008 2.3641077103348236 20.243628422847955 0 0 0
11173 3 19.261999691188826 4.256052151747813 20.247282697974526 0 0 0
11116 1 16.633198629781518 3.362205026253637 20.17182579251407 0 0 0
11164 1 0.5180788363623775 6.067706685467353 20.157830267045313 0 0 0
11221 1 3.1144231441815684 7.110108507902632 20.213021306329978 0 0 0
11165 1 5.878058997574168 5.242149989117051 20.15356168198643 0 0 0
11225 2 5.828453046252289 8.132650397001514 20.202586188201373 0 0 0
11170 1 8.487879358814494 6.249678757309011 20.11600370110336 0 0 0
11227 1 11.207941242692224 7.127084439774068 20.08174089823727 0 0 0
11171 1 13.959217618549795 5.20086488931668 20.290470062675155 0 0 0
11231 2 13.953058618206144 8.056386532996841 20.180774846512314 0 0 0
11176 3 16.5947825519709 6.176717603053747 20.20307842837265 0 0 0
11224 2 0.37829058908472024 8.981912710897442 20.22254825485406 0 0 0
11281 2 3.121193225757522 9.977818071803341 20.273043332487184 0 0 0
11285 1 5.83425239993438 10.99900430349216 20.37478849445118 0 0 0
11230 3 8.503467071029332 9.025781109611172 20.2101076286124 0 0 0
11287 1 11.200165398387844 9.912768442005037 20.263903094328832 0 0 0
11291 1 13.866209211553818 10.880538868641587 20.217904090745954 0 0 0
11236 1 16.745270780874847 8.956966889718398 20.186622882436623 0 0 0
11284 2 0.42587771273841424 11.842651952570069 20.24986575950669 0 0 0
11344 1 0.47277156311974255 14.76393304522459 20.235553806898174 0 0 0
11341 2 3.1775098308788596 12.83604385804377 20.29637824588336 0 0 0
11345 3 5.819026477027329 13.769124228915008 20.2209566308358 0 0 0
11290 2 8.474214408690676 11.89113410724577 20.204071567295557 0 0 0
11350 1 8.319457384333502 14.738385004398154 20.215788566418745 0 0 0
11347 1 11.215288772129105 12.817925075930976 20.16878589718717 0 0 0
11351 1 13.85903878062683 13.729589233805907 20.3107805366134 0 0 0
11353 2 19.24860773289403 12.81944402960045 20.19366033903578 0 0 0
11296 1 16.594018861239284 11.816104948576033 20.199261251850466 0 0 0
11356 2 16.55951563311855 14.69072652019031 20.234542634353076 0 0 0
13804 2 0.4326022104247368 0.4533372712680366 24.87398940433146 0 0 0
13806 1 1.8131387839507753 -0.48913635072450923 22.5427808237864 0 0 0
13802 2 4.536779622538411 0.3946878660005444 22.53131807752503 0 0 0
13805 1 5.772191689904789 -0.469575229283691 24.97185843184458 0 0 0
13861 2 3.1319900013083926 1.3775213325348927 24.8973559515266 0 0 0
13810 1 8.571703618683204 0.4340870502138099 24.962618458828572 0 0 0
13869 1 7.3384509178717074 1.3072220534490762 22.53249974460143 0 0 0
13812 3 9.859894928364946 -0.5121075868323104 22.600668293083956 0 0 0
13867 2 11.241826742118777 1.400786243092158 24.979175265688816 0 0 0
13808 2 12.514840925574989 0.5019498085942691 22.548499123003992 0 0 0
13807 3 11.277649674800527 -1.4333062440359126 24.907607641494295 0 0 0
13811 1 13.971936080906472 -0.4306141891026023 24.873904398114377 0 0 0
13875 2 15.250804537151877 1.4050429109151912 22.54457364491394 0 0 0
13815 3 15.214089523784414 -1.4261562197684265 22.542477592123504 0 0 0
13813 3 19.244108307345357 -1.4218286750120033 24.933262633909017 0 0 0
13873 2 19.263856677225334 1.4219872684133694 24.8755145124005 0 0 0
13816 3 16.560334016298413 0.46144337263591284 24.897962769064662 0 0 0
13818 2 17.896160539791346 -0.4361532735536042 22.607685859542705 0 0 0
13864 1 0.42583742058490326 3.329883073315247 24.8510932640283 0 0 0
13866 3 1.7877802258340996 2.3247661236373727 22.56672464130358 0 0 0
13862 1 4.335702591226516 3.3023734376257528 22.6036484063139 0 0 0
13921 1 3.159734172422393 4.250311822792417 24.894477161415367 0 0 0
13865 2 5.860890683069945 2.340517340205796 24.847147383328227 0 0 0