LAMMPS data file via write_data, version 2 Aug 2023, timestep = 5044443, units = metal

38640 atoms
3 atom types

-0.7773598317406084 79.6509295517434 xlo xhi
-1.253853842804465 129.52953665282203 ylo yhi
-0.6326010906294975 64.38534851613281 zlo zhi

Masses

1 92.90600000000001
2 180.948
3 47.88

Atoms # atomic

21541 3 0.01616236272530247 -0.26174137441397116 0.9897646927990019 0 0 0
23931 1 0.032798057497741236 2.5432374355823986 0.9953413446841609 0 0 0
21554 2 2.6922817477153744 0.6571526049815033 0.9819494561412937 0 0 0
21744 3 1.3545035351714187 1.6117454624127987 3.295871429174138 0 0 0
21556 3 5.359147562856155 1.6071577838924467 0.9755812818594058 0 0 0
21746 2 6.723872541827429 0.6646968326673093 3.26549138400558 0 0 0
21726 3 4.032826583813365 -0.259513532444452 3.287577185126715 0 0 0
24111 1 4.027119383380039 2.5576185491220835 3.2908434746738253 0 0 0
21542 1 5.369665695264469 -1.2050915153234052 0.9788550703311981 0 0 0
21547 3 8.099191554551298 -0.23878011835598842 0.9521168808172215 0 0 0
23933 1 7.977222953851967 2.5491005967292897 0.9911774241276243 0 0 0
21558 1 10.80821957924438 0.7793417951620079 0.7786703133467648 0 0 0
21748 3 9.432039057764154 1.586874739497665 3.2019350345460067 0 0 0
21736 1 9.370352163012408 -1.218951661744585 3.2611513565936847 0 0 0
21560 3 13.405098479437186 1.58774659801846 0.9779307942303478 0 0 0
21732 3 12.003394889710709 -0.216051102270172 3.2109721940972227 0 0 0
24113 1 12.088602214042194 2.5844371381224835 3.3985556529918495 0 0 0
21750 2 14.739673283594211 0.6628250846162156 3.305005993308953 0 0 0
21552 3 16.102614054115477 -0.34763325189670824 0.9184302455033164 0 0 0
23934 1 16.059455503014398 2.355080660735524 1.0964969914223837 0 0 0
21562 1 18.957033760063766 0.6140458533066316 1.0039954781926643 0 0 0
21740 1 17.262322535037203 -1.1268393376594505 3.2503457901453734 0 0 0
21751 3 17.482239613712217 1.6021761064357 3.340972621793618 0 0 0
23938 3 -0.04164371218089356 5.422214980287028 0.9918982129118518 0 0 0
23951 1 2.6618597477345016 6.165455782272651 0.9676449015586219 0 0 0
23935 3 2.6908696389952236 3.4596016307910893 0.9791035662612597 0 0 0
24121 2 1.3539624030113016 4.435148019963501 3.2840620345808382 0 0 0
23939 2 5.3615001805542875 4.43177995074133 0.9594798497560172 0 0 0
24140 1 6.798770844825504 6.178167310701823 3.2374400359103785 0 0 0
24117 3 4.054759067279203 5.444883750432577 3.277325613783126 0 0 0
24124 3 6.706933546018932 3.4773513437485777 3.270257318073228 0 0 0
23944 3 8.049912607991962 5.380959856594321 0.894215395172229 0 0 0
23957 1 10.631320077316492 6.206596489732883 1.1249212960311066 0 0 0
23941 3 10.732614935080658 3.478494331932355 0.9589527598762989 0 0 0
24127 2 9.399461992776823 4.4160177858511735 3.28053478444633 0 0 0
23945 1 13.419384268124775 4.391273805699579 0.7795161568618667 0 0 0
24123 3 12.077140342129143 5.387220668460315 3.2774319876289866 0 0 0
24145 1 14.649228317332318 6.1905942417275215 3.428910667979812 0 0 0
24129 3 14.754617822014326 3.5000978130836966 3.25647285066607 0 0 0
23949 3 16.010106508268542 5.31028999880437 1.0277579754925343 0 0 0
23963 2 18.721154406591545 6.292202987046388 0.9659440151927815 0 0 0
23947 3 18.72418976481751 3.3810351661484175 0.9426618849411819 0 0 0
24131 1 17.487066720516587 4.491206281307848 3.1519170731737063 0 0 0
23954 1 0.07232536278870347 8.329491852151959 0.9089906261344186 0 0 0
23967 3 2.7007247633372393 9.125465066641864 0.9591580260864856 0 0 0
24153 2 1.367167755358206 10.145384512262508 3.2870973195900186 0 0 0
24137 3 1.37092138163042 7.311665456921597 3.2710869436949612 0 0 0
23971 2 5.387017337256709 10.103121887912582 0.9351963162175471 0 0 0
23955 3 5.367172819619294 7.26657029381654 0.9504278923699594 0 0 0
24133 1 4.0002863132638575 8.260204296132597 3.1374609910297075 0 0 0
24156 2 6.757879973057808 9.141047422810404 3.269384633982608 0 0 0
23960 1 8.016663618440534 8.239287310050946 0.8036185453442876 0 0 0
23973 3 10.675110834968871 9.083791016673926 0.996444025640044 0 0 0
24143 3 9.385558357123005 7.291518709392993 3.2718473928580964 0 0 0
23961 3 13.370066174859742 7.16978038960934 0.9913645793578417 0 0 0
23977 2 13.40777258283011 10.037088072698658 0.9621564982540006 0 0 0
24139 1 12.160448751899747 8.288169414426333 3.1559078005564736 0 0 0
24161 3 14.737004197444994 9.063895909663723 3.3213868747081468 0 0 0
23965 1 16.052915941167726 8.140182454260874 0.9521723780727283 0 0 0
23979 3 18.725348636677694 9.105153377150868 0.9932716139937652 0 0 0
23981 3 16.07288364676058 11.018518121800733 0.9713065953128801 0 0 0
24147 3 17.401376796797692 7.202870773725983 3.3224481476512238 0 0 0
24163 2 17.41299631483932 10.046436593744561 3.296941463264276 0 0 0
23970 3 0.025898676120459242 11.124131123886883 0.9745649284942418 0 0 0
23986 2 0.04598434682912485 13.957372124595866 1.0183594454811908 0 0 0
23983 1 2.705361738551766 11.896782866504777 0.9259563489944663 0 0 0
23999 1 2.7300715512741154 14.824035028054345 1.0353683966847367 0 0 0
24169 1 1.1832712492090969 12.99893222025414 3.393691144007956 0 0 0
23987 2 5.438840374816711 12.99533561027864 0.968097939398732 0 0 0
24149 1 4.083542783120094 11.126497578349797 3.313127946642051 0 0 0
24172 1 6.655256295517902 12.041036972611254 3.2980077319493972 0 0 0
24165 2 3.9747898310845335 13.952785061403572 3.3492945695720167 0 0 0
23976 2 8.122322553240624 11.131313892412171 1.0516403446599087 0 0 0
23992 1 8.067060185082983 14.04111566115545 1.0435327423275294 0 0 0
24005 2 10.75773009475559 14.75430028050459 1.0174113590524405 0 0 0
23989 1 10.941826636121181 11.796388645979597 0.9521551514679681 0 0 0
24175 2 9.406772575508121 12.919592670317051 3.281215926363592 0 0 0
23993 3 13.428757125918828 12.94035320252819 0.9941031295833412 0 0 0
24155 3 12.096806037626893 11.070118022414418 3.3303635187234435 0 0 0
24177 1 14.798011580237116 11.784202339623441 3.2152269284549195 0 0 0
24193 3 14.752254690774164 14.756813128379315 3.338891117433163 0 0 0
23997 1 16.05464610596429 13.919564713366347 1.0907462496050166 0 0 0
23995 1 18.668802206722713 11.785297803420882 0.9792841802577678 0 0 0
24011 2 18.787682230047565 14.808391202268632 0.9945052656033765 0 0 0
24179 3 17.39090203947408 12.918747196188763 3.327694824849686 0 0 0
24002 1 -0.129189916906417 16.859852722842103 1.1483532742245257 0 0 0
24015 2 2.690157056813148 17.677846208394502 1.0002989502270043 0 0 0
24185 2 1.3676091842770561 15.864220964501643 3.371812945024034 0 0 0
24201 1 1.4517045677558529 18.85325689985532 3.4084234430646614 0 0 0
24003 2 5.354672999887405 15.886211095783787 0.9785824728536358 0 0 0
24019 1 5.3601311540973064 18.853782621208687 1.1503946037052561 0 0 0
24204 3 6.728958764287338 17.721239934617138 3.2945521249749143 0 0 0
24181 2 4.058337244161211 16.84119631597063 3.368670834321312 0 0 0
24008 1 8.054424997420867 16.865061625294192 0.9414101419431248 0 0 0
24021 1 10.748451958569921 17.615830368484374 1.1382095176509694 0 0 0
24207 1 9.229998827956365 18.83655471983647 3.369935062716898 0 0 0
24191 2 9.389844153352227 15.852524689692927 3.334503634228609 0 0 0
24025 2 13.420453801889876 18.646115088476876 0.9723262436550703 0 0 0
24009 2 13.419736006286275 15.763387003391156 1.0394513599719701 0 0 0
24187 3 12.073116448339777 16.736390090748326 3.3372003140215543 0 0 0
24013 2 16.073053248367167 16.800381835775692 0.998825352452869 0 0 0
24027 1 18.738904170129437 17.610826033124106 0.9966660684352466 0 0 0
24211 2 17.422229736999558 18.65037562120092 3.2816098809518515 0 0 0
24195 2 17.386827313173033 15.745627943520375 3.361697885978653 0 0 0
24018 3 0.01956617135134677 19.6476594206059 1.0383371017250365 0 0 0
24034 1 0.03657471053359543 22.555025915889818 1.0835313854142299 0 0 0
24031 2 2.678111688674795 20.607101606875442 1.0387222662723035 0 0 0
24217 3 1.292979719361018 21.54002909156132 3.348375329023454 0 0 0
24035 3 5.385698265678624 21.535616825559558 1.0144840579783903 0 0 0
24197 3 4.02553495957262 19.67106919280293 3.3557895549127035 0 0 0
24213 1 4.013710719446288 22.500453156377727 3.354439487638116 0 0 0
24220 2 6.697224712492523 20.600127692759873 3.3563343024182335 0 0 0
24024 3 8.02003150847386 19.641238388338703 0.9844148774485961 0 0 0
24040 1 7.943873094709236 22.451343941022493 1.1382405445989205 0 0 0
24037 2 10.694669185673023 20.51647103547416 1.0358746851137175 0 0 0
24223 3 9.395804916364659 21.560468560548266 3.3376512320583505 0 0 0
24041 2 13.393725147914221 21.542657198697523 1.0869770570466897 0 0 0
24203 2 12.093694190262092 19.605383556873768 3.3651002864545494 0 0 0
24219 1 11.984153088733198 22.581349113448265 3.441112131845568 0 0 0
24225 1 14.779364118212342 20.533646780066285 3.346882716211695 0 0 0
24045 1 16.113167362875405 22.509181611346627 1.1327658628600115 0 0 0
24029 1 16.060002090489995 19.697869161177476 1.0292978531752912 0 0 0
24043 2 18.767178211810364 20.513877618256984 1.0251611417541464 0 0 0
24047 3 2.6839116777960528 23.435938995962097 1.0368141738852397 0 0 0
24050 3 0.039462262331004735 25.312106318107595 1.0252770479949578 0 0 0
24063 1 2.7136014973996305 26.25052267776533 1.0028434201840803 0 0 0
24233 2 1.3639740017759137 24.373161871511897 3.344737848969264 0 0 0
24249 3 1.3773816823377885 27.18963616056995 3.331287503082258 0 0 0
24051 2 5.385174076839968 24.38810347292156 1.0193946990705094 0 0 0
24067 3 5.381319566144525 27.203852985073862 1.0307637943059405 0 0 0
24252 1 6.7298042854706885 26.251861243522683 3.3257891116212823 0 0 0
24236 3 6.692151674382868 23.434547566738974 3.3541082502382187 0 0 0
24053 2 10.671936502550754 23.436373078019123 0.965025070410271 0 0 0
24056 3 8.102579726866262 25.278335957346712 0.9566284687107377 0 0 0
24069 1 10.719000484953744 26.397136427845986 1.1061114352076213 0 0 0
24239 2 9.344308916104513 24.4008483383575 3.3362973783471097 0 0 0
24255 3 9.400199682751722 27.231020118529315 3.3609896328215965 0 0 0
24057 2 13.38686644569683 24.410921655819966 1.0644736006742597 0 0 0
24073 3 13.433459425588847 27.25539684116322 1.0521549981356537 0 0 0
24241 3 14.733043840669243 23.393919503886345 3.3136618378979397 0 0 0
24235 3 11.993593377465078 25.33613649679222 3.337114230812241 0 0 0
24257 1 14.555409185152593 26.207772328302134 3.347379197778386 0 0 0
24059 3 18.763134580882248 23.360329036215596 1.03025400297889 0 0 0
24061 3 16.056966652913932 25.294694780121365 1.0692120808165342 0 0 0
24075 3 18.78490627017323 26.250258371499058 1.0790322839648636 0 0 0
24243 1 17.618793397491203 24.645325103540483 3.3530373403105935 0 0 0
24259 3 17.250885216968502 27.33040330777911 3.359806084290202 0 0 0
24082 3 0.021148578428108498 30.96464898176862 1.0122008732855632 0 0 0
24066 2 0.029728060934351888 28.135700019952527 1.0281593579097374 0 0 0
24079 3 2.704260726055907 29.06529876562005 1.0279185327342957 0 0 0
24083 1 5.385778694825161 30.008088404987983 1.0363568482523566 0 0 0
24261 3 4.0485667511035635 30.941131784847915 3.3498509068901465 0 0 0
24245 2 4.049213617997412 28.128724859617954 3.3412816090179556 0 0 0
24268 3 6.725085612528398 29.07581539620397 3.34954381667124 0 0 0
24072 2 8.059965554436573 28.131125684959315 1.0409718850703817 0 0 0
24088 3 8.065898512479308 30.9700400498341 1.0379529849642726 0 0 0
24085 3 10.741063850186437 29.140411323343265 1.0657795207527836 0 0 0
24271 1 9.392542119111328 30.060862041601382 3.3710423283352027 0 0 0
24089 1 13.40511717022201 30.105826291679577 1.0467575645822675 0 0 0
24251 2 12.09179165357228 28.196367139072933 3.363984878366649 0 0 0
24273 3 14.803027998799942 29.0752306380788 3.3446096289009604 0 0 0
24267 3 12.077423620019292 31.012889841221813 3.348670470875443 0 0 0
24077 1 16.289604452221024 28.026421039606465 1.0233137192794637 0 0 0
24093 3 16.09005114991829 30.966758034463616 1.0386638293495976 0 0 0
24091 3 18.810013787723847 29.13983058981819 1.0955183114899911 0 0 0
21728 3 0.011312220246098268 -0.26708570253145103 5.604506996483085 0 0 0
24112 1 0.027904555193033198 2.5296356961295245 5.634731000561324 0 0 0
21741 2 2.6909252289700745 0.6807099706163383 5.606068611931277 0 0 0
21743 3 5.374144019020454 1.6226525480587985 5.580605659998786 0 0 0
21729 1 5.355650493625611 -1.195670751576752 5.5880480247527675 0 0 0
24114 1 8.066962066519572 2.5421277484699267 5.5438093041413605 0 0 0
21734 3 8.048749773458542 -0.2659516722214225 5.56353693783667 0 0 0
21745 2 10.734887950226073 0.6745611776147883 5.5759148477771925 0 0 0
21747 3 13.42968014605981 1.5882895386229587 5.681383347602518 0 0 0
21735 1 13.305057680675 -1.1760490177861986 5.458650126543702 0 0 0
21739 3 16.084773389114282 -0.31657969393840574 5.593389575918755 0 0 0
24115 1 16.02872871735963 2.5971591322794825 5.580862132413648 0 0 0
21749 1 18.80236414614674 0.44808013050212103 5.763878590621516 0 0 0
24119 3 0.03785060657218702 5.3596895012339525 5.654186722492571 0 0 0
24132 1 2.6410838866565984 6.178275596787981 5.517088276662751 0 0 0
24116 3 2.6964548699222006 3.4872348568738785 5.611434027615147 0 0 0
24120 2 5.372851226884658 4.439508907500721 5.576100630185553 0 0 0
24125 3 8.058438489463828 5.373395910658901 5.581711284205325 0 0 0
24122 3 10.729299168215293 3.504437783079993 5.626379326560768 0 0 0
24138 1 10.721746599924213 6.320373300448235 5.621874879897601 0 0 0
24126 2 13.416903968416042 4.4334929971695525 5.634540393702574 0 0 0
24130 3 16.126778635044968 5.396402270760145 5.5785459082401605 0 0 0
24128 3 18.714283502496553 3.4051273555487054 5.621929207759819 0 0 0
24144 1 18.837924105669412 6.122743764704065 5.69720745586255 0 0 0
24135 3 0.02177597215512338 8.225043414684485 5.6666155655855235 0 0 0
24148 1 2.546434649983296 9.210186355876854 5.676587267930404 0 0 0
24136 2 5.318874201289223 7.304152822863342 5.551880320168414 0 0 0
24152 1 5.371577762723792 10.136823465994356 5.592056476302097 0 0 0
24159 1 9.528657712544467 10.007238157254577 3.4264040091478787 0 0 0
24141 2 8.090814569358358 8.181009472113184 5.612672709615636 0 0 0
24154 3 10.756893662599573 9.131895540865761 5.622323036457112 0 0 0
24142 3 13.428745901927226 7.305501472614003 5.594832483224731 0 0 0
24158 1 13.345317232272706 10.133808673857137 5.759742179606577 0 0 0
24146 1 16.174934994558182 8.2658058321648 5.489914819101027 0 0 0
24160 3 18.75148700895064 9.055463641762973 5.629395965471662 0 0 0
24151 2 0.001710637459870961 11.119910945863825 5.674946632781516 0 0 0
24167 3 0.09711437269820412 13.97791418319783 5.674487740898902 0 0 0
24164 2 2.69728190233006 12.115099425806651 5.616557597287958 0 0 0
24168 2 5.427569197976367 13.016763778489551 5.671721813413291 0 0 0
24188 1 6.648535259213544 14.97256532962556 3.4073983107705104 0 0 0
24157 2 8.019583235506179 11.082138080967809 5.60653056540623 0 0 0
24173 1 8.196129623534825 13.930692705564777 5.754990444507176 0 0 0
24186 3 10.727831065988227 14.844829341339016 5.641513192256799 0 0 0
24170 2 10.76887311109083 11.993539316325872 5.650180421638745 0 0 0
24171 1 12.149711677957107 13.947551869205858 3.4387547264477476 0 0 0
24174 3 13.441845374737843 12.909702176324155 5.607546275170278 0 0 0
24192 2 18.823407896144136 14.763843228804872 5.683360869622196 0 0 0
24162 3 16.055748441599583 11.036004208618388 5.634696980403657 0 0 0
24178 1 16.00743378273684 13.912896396057873 5.686934587348262 0 0 0
24176 1 18.70168406654673 11.745799086585519 5.525559477992715 0 0 0
24180 1 2.841949270527259 15.08910955277461 5.819446347783727 0 0 0
24183 1 -0.14902073844810393 16.754368440255785 5.734636586163106 0 0 0
24196 3 2.645190266729082 17.764503132840964 5.642161192982267 0 0 0
24184 3 5.406672660366107 15.860099919378552 5.6479703980229266 0 0 0
24200 1 5.363078910822911 18.688491080991806 5.653097076160495 0 0 0
24189 2 8.057626777822914 16.83410477725304 5.652113099376861 0 0 0
24202 1 10.898230437872408 17.56634929152743 5.649468116380726 0 0 0
24206 3 13.423361367224654 18.649166476098323 5.6673787027953795 0 0 0
24190 2 13.414263915259902 15.761268829133076 5.670118310307206 0 0 0
24209 1 14.681404628137164 17.513181553175237 3.45679122387701 0 0 0
24194 3 16.068939234696288 16.73777913890907 5.678995153141751 0 0 0
24208 1 18.60812651738157 17.611112950128838 5.630996766471648 0 0 0
24199 3 0.012783657009263526 19.616673632529047 5.682260727671858 0 0 0
24215 1 0.06581851610669855 22.510414541070684 5.661723828704463 0 0 0
24212 2 2.6803323528314125 20.61643853930992 5.668273949459386 0 0 0
24216 3 5.357569761041324 21.546501375053296 5.652693385428975 0 0 0
24205 3 8.044345040126412 19.651992040978282 5.661425821438414 0 0 0
24221 1 8.028884823745807 22.49341020214375 5.657149961567492 0 0 0
24218 2 10.72117682937317 20.564430355354986 5.650738038897348 0 0 0
24222 3 13.388831414655755 21.496922402098985 5.629856244507275 0 0 0
24227 3 17.383106952630666 21.532498583674503 3.3735200816625914 0 0 0
24226 1 15.94078363897701 22.56497506592235 5.531066291184509 0 0 0
24210 2 16.06308712896876 19.616971217333305 5.644198435481625 0 0 0
24224 1 18.772058396592357 20.597529566406607 5.640321351987087 0 0 0
24231 3 0.046450963045669515 25.299315635385124 5.6512696149006265 0 0 0
24228 3 2.6994396837357835 23.4380369819237 5.653228548995631 0 0 0
24244 1 2.722484222015916 26.26178164274959 5.645099156366855 0 0 0
24229 3 4.0421407177134006 25.312414337205087 3.3331844260592485 0 0 0
24232 2 5.373363601528027 24.376131948937303 5.653044025210102 0 0 0
24248 3 5.394423026747531 27.196442413880632 5.646607704821885 0 0 0
24234 3 10.687946150622471 23.43626098617183 5.6517719299619955 0 0 0
24237 3 8.04734638863557 25.32553671356212 5.654398602702131 0 0 0
24250 1 10.717179194647366 26.298757233973326 5.669747112106137 0 0 0
24238 2 13.367551418536214 24.381281864230345 5.638149939713845 0 0 0
24254 3 13.441329636018217 27.245653417023682 5.654795418386139 0 0 0
24240 3 18.70983063388918 23.350694899477304 5.591394211446303 0 0 0
24242 3 16.048911958963405 25.318561862332423 5.651950321279594 0 0 0
24256 3 18.76746455991771 26.253764623902846 5.627097245113277 0 0 0
24265 1 1.3710396905889224 30.000090170781736 3.340987169555333 0 0 0
24263 3 0.05572919893658876 30.944056464325524 5.663762411972414 0 0 0
24247 2 0.04365698680711753 28.121498907413134 5.65083086312888 0 0 0
24260 3 2.716671408792355 29.07724030754199 5.6540752825301555 0 0 0
24264 1 5.392648313897289 30.014662713985107 5.665287289126091 0 0 0
24269 3 8.07714165456566 30.98320887144924 5.669259298621012 0 0 0
24253 2 8.061687447515231 28.154268213527374 5.662749963284027 0 0 0
24266 3 10.74030295420342 29.117817397821227 5.660078303708689 0 0 0
24270 1 13.416114681502043 30.05832838014327 5.63567408300489 0 0 0
24275 1 17.43118827020607 30.234332804570176 3.381810505485893 0 0 0
24274 3 16.099075028813157 30.956791306066442 5.682649107909854 0 0 0
24258 1 16.28471798541985 28.034056648573472 5.692154678210588 0 0 0
24272 3 18.791992288842412 29.131469853603615 5.666031013596534 0 0 0
21931 3 1.3886088860147403 1.5986092637241014 7.987110013032998 0 0 0
21915 3 0.012065143594061412 -0.28113102706213916 10.228872801942256 0 0 0
21928 1 2.635993126582156 0.5330199645382949 10.401154241834313 0 0 0
24293 1 -0.00464822322134526 2.592545914273771 10.222135884296458 0 0 0
21913 3 3.985237591624795 -0.23846363062177933 7.932617404935374 0 0 0
24292 1 4.067941969919212 2.552827959547195 7.884060501438215 0 0 0
21930 3 5.335168879054879 1.5784598429077434 10.261266179068661 0 0 0
21933 2 6.6870087874866835 0.659038062570282 7.885739505934352 0 0 0
21916 1 5.370301757950848 -1.2364046430504794 10.026217244135488 0 0 0
21935 3 9.377459205388162 1.608030866440642 7.8746658217723855 0 0 0
21921 3 8.053147669790514 -0.3351920279906147 10.211958050585105 0 0 0
24295 1 7.983629161879875 2.4491795216902776 10.03682256138894 0 0 0
21932 2 10.703007004982327 0.6805784034705149 10.19486431285002 0 0 0
21923 1 9.360697808823577 -1.1459928830030195 7.789037405068926 0 0 0
21919 3 12.09674483378957 -0.32273763531253646 7.885104996938936 0 0 0
24294 1 12.019418381562144 2.541584733887763 7.956154198559183 0 0 0
21934 3 13.43065971290581 1.616139787968772 10.179493568121806 0 0 0
21937 1 14.965355447150529 0.49686024260447176 7.893949333461649 0 0 0
21922 1 13.420180108507322 -1.0327362130123836 10.141324408915244 0 0 0
21936 1 18.69269514529937 0.4622614474570398 10.055599223658714 0 0 0
21938 3 17.454729813473122 1.6116289195327562 7.910903694799449 0 0 0
21926 3 16.090355836528783 -0.2848854785297967 10.261699583305719 0 0 0
24296 1 16.07425841535967 2.635749332380677 10.277721329099423 0 0 0
22827 2 17.45474200274755 30.10254573768214 31.23118516510995 0 0 -1
24302 2 1.4303020373149617 4.443423996789736 7.984496115811442 0 0 0
24300 3 -0.021812566726011787 5.390185803666314 10.220319344437515 0 0 0
24313 3 2.6821504283049085 6.372575726710623 10.238841649086535 0 0 0
24297 3 2.6632024998365225 3.464405236974435 10.24318938949662 0 0 0
24298 3 4.0603909547374695 5.449503765852311 7.881718096815635 0 0 0
24301 2 5.284416566363847 4.4356551560284725 10.175609596446725 0 0 0
24305 3 6.712384407176101 3.4997008763331188 7.889306091580721 0 0 0
24321 1 6.806566570052313 6.225645369136451 7.835726121345177 0 0 0
24308 2 9.402099074385216 4.437342661565443 7.9195077880515425 0 0 0
24306 2 8.044673390260831 5.369430069284851 10.289825745177183 0 0 0
24303 3 10.658080273416184 3.5068126878256347 10.280626382669125 0 0 0
24319 1 10.839914496819816 6.367651901325358 10.159471253245016 0 0 0
24304 3 12.070362914708678 5.372390969004296 7.915678125456175 0 0 0
24307 2 13.387525141831217 4.438378599372425 10.226711289083278 0 0 0
24310 3 14.734533880458548 3.4098099403039237 7.930891696713771 0 0 0
24326 1 14.773586024021208 6.283695565963476 7.920223965523601 0 0 0
24312 2 17.390227655505015 4.435086346925014 7.9437431600878785 0 0 0
24311 3 16.064380210084373 5.391457838751462 10.26234406039216 0 0 0
24309 3 18.745374039373147 3.4184551771944154 10.245862750202011 0 0 0
24325 1 18.72688351741031 6.302806995273136 10.279447687905556 0 0 0
24318 1 1.2679953373623567 7.28794658611251 8.04956755808289 0 0 0
24334 3 1.3410202137220273 10.13622233118697 7.947835693139419 0 0 0
24316 3 -0.04634931878866604 8.270094471513817 10.234500611430123 0 0 0
24329 1 2.5500912063297667 9.37747060173399 10.257086329128903 0 0 0
24314 1 3.907749477398089 8.204663965186816 7.9008024423562535 0 0 0
24317 2 5.328590463050081 7.296853911008888 10.139889727920675 0 0 0
24333 1 5.510458983151085 10.167931960366015 10.287437001881402 0 0 0
24337 2 6.654937886368566 9.160604242151997 7.905337915923889 0 0 0
24324 3 9.385741736108569 7.273944288036429 7.942527922024755 0 0 0
24340 1 9.468651038545007 10.089812425007551 7.987078268092489 0 0 0
24322 2 8.066987416363526 8.245748313177735 10.23429938889506 0 0 0
24335 3 10.741931688938633 9.152995163325022 10.25214149607714 0 0 0
24338 3 8.070296124793378 11.063237845092097 10.25806248288573 0 0 0
24320 2 12.09173854983017 8.197888679304473 7.927590478513033 0 0 0
24339 1 13.428483009445797 10.097229569175246 10.262165122069186 0 0 0
24323 3 13.429869384573902 7.269402926776922 10.239456393280191 0 0 0
24342 3 14.77031135153759 9.121200442667643 7.9035545578977695 0 0 0
24344 1 17.325670644411673 10.131631403671888 8.067201530531223 0 0 0
24328 3 17.45728982606626 7.299602219331744 7.886472537585622 0 0 0
24327 2 16.089656027565326 8.19927513311335 10.237623839238903 0 0 0
24341 3 18.757279423053394 9.122955390430732 10.222832963944935 0 0 0
24332 2 0.002335152190637572 11.115821772783564 10.301385862744189 0 0 0
24350 1 1.2501040221979582 12.957042320885245 8.02804191826245 0 0 0
24348 3 0.07195587766598768 13.962029266895286 10.29245395005938 0 0 0
24345 3 2.6681479357982276 12.124327629542783 10.264409077585237 0 0 0
24330 2 4.032609542253059 11.091850817965438 7.954863373407521 0 0 0
24346 3 4.01264901468011 13.906769153900385 7.956417211598246 0 0 0
24349 1 5.20000370717511 12.972439700307621 10.289400697361348 0 0 0
24353 2 6.739428155929973 12.086198122904761 7.999241578707926 0 0 0
24369 1 6.516549168774132 15.08612859048788 7.971878400884032 0 0 0
24356 3 9.414268547859914 12.941181435825838 7.952613106789836 0 0 0
24354 1 8.239432397002473 13.806078542975841 10.228710024282002 0 0 0
24351 2 10.770445297860963 12.01045845203331 10.278920899607916 0 0 0
24367 3 10.734874679250638 14.854022807154697 10.295204341001202 0 0 0
24336 3 12.06520784012712 11.045658947992207 7.975983778646005 0 0 0
24352 1 12.068621657245824 13.883159188879189 7.967494791974875 0 0 0
24355 3 13.42104162087862 12.938999340211957 10.289171864830312 0 0 0
24358 2 14.738572401166369 11.987284457176782 7.964652668515337 0 0 0
24374 3 14.740959338756234 14.821540214233544 7.97665924488979 0 0 0
24343 3 16.058772038800544 11.04536713796152 10.295222161197875 0 0 0
24373 3 18.749476684139392 14.827009617321131 10.321703717784933 0 0 0
24360 3 17.42427880132802 12.914741608970786 7.899948856180064 0 0 0
24359 1 16.07774188218469 13.8787439940909 10.269432134098995 0 0 0
24357 2 18.726143393931494 11.97679473380697 10.28131413299289 0 0 0
24361 1 2.7825391517623226 15.081497496823202 10.114208263989429 0 0 0
24366 3 1.323617222556167 15.86921956484594 7.969334175969915 0 0 0
24382 1 1.5499145621559105 18.71739421690556 7.983447806024749 0 0 0
24364 1 -0.1302592957440026 16.732513980673733 10.316039308044088 0 0 0
24377 3 2.6803067678608716 17.744703406458 10.337718207766082 0 0 0
24362 3 4.0214036835983995 16.81993692720724 7.970114683711457 0 0 0
24381 1 5.366775142337933 18.687444601452565 10.244768244547876 0 0 0
24365 3 5.354465067906218 15.850973378783321 10.304534849785023 0 0 0
24385 3 6.708457016158251 17.775460021512302 7.961836134041292 0 0 0
24388 1 9.232414134742672 18.798234041997393 7.962970193539876 0 0 0
24372 2 9.403183703049397 15.811641579732418 7.974899944252427 0 0 0
24370 2 8.03855025922396 16.80096181012277 10.282565633435983 0 0 0
24383 1 10.89954027552167 17.587150958423315 10.297459021270875 0 0 0
24368 3 12.053869906088604 16.73982799706093 7.976970363142228 0 0 0
24371 2 13.414874383678482 15.769690693256642 10.287914825776708 0 0 0
24387 3 13.423490431821103 18.660179180444743 10.28538605664691 0 0 0
24390 1 14.678361478104835 17.578414300771705 7.99524991092889 0 0 0
24392 2 17.43386428049366 18.658002134269974 7.958611556430354 0 0 0
24376 2 17.38889015051442 15.748163202564758 7.980812641275866 0 0 0
24375 3 16.070822975552826 16.754064310955126 10.280731871450232 0 0 0
24389 1 18.66224510731405 17.52913003497404 10.272729346533273 0 0 0
24398 3 1.2957474947125354 21.500749100329667 7.963564953513028 0 0 0
24380 3 0.03716149493704884 19.59818348122994 10.225621258202272 0 0 0
24396 1 0.07548099400719978 22.522495079583692 10.246235257647305 0 0 0
24393 2 2.706156275554052 20.591695874799125 10.267433728298203 0 0 0
24378 3 4.069675219629503 19.66260813306519 7.9591794503355 0 0 0
24394 1 4.027456532724584 22.492484575366923 7.96051816832618 0 0 0
24397 3 5.375299653442972 21.531463759097868 10.26204799188079 0 0 0
24401 2 6.70180241716125 20.62558782326769 7.952543185195489 0 0 0
24404 3 9.391790687839164 21.540625162200108 7.9547698233633515 0 0 0
24386 3 8.020018044917714 19.636746015153054 10.25806345808079 0 0 0
24402 1 8.047681853652207 22.486572631164776 10.275175396058755 0 0 0
24399 2 10.670054898567887 20.556760802791953 10.265920300023327 0 0 0
24400 1 11.966246988242835 22.5686284048687 7.887104407218506 0 0 0
24384 2 12.057536516288666 19.56577112287457 7.951707903466582 0 0 0
24403 1 13.373648417135936 21.4326433345134 10.28133738725526 0 0 0
24406 2 14.695755825525032 20.556658438527283 7.920504892371593 0 0 0
24405 1 18.81675813896139 20.541743343799393 10.22396671421654 0 0 0
24408 2 17.362722936315382 21.584525293184036 7.950232114069177 0 0 0
24391 2 16.09786877397572 19.607721966873964 10.26896412524606 0 0 0
24407 1 15.927589605364634 22.441908930051746 10.276981962260562 0 0 0
24414 2 1.3714178558911625 24.351034340137996 7.959623054511301 0 0 0
24412 3 0.05633728460618963 25.293553835406357 10.2668080054615 0 0 0
24430 3 1.388175142142125 27.184365626224114 7.9575293424937765 0 0 0
24409 3 2.713618896202766 23.422694085257216 10.268367402688519 0 0 0
24425 1 2.7346280346307457 26.244619725310066 10.266031964737513 0 0 0
24410 3 4.048767141393742 25.31016630715814 7.961155245087466 0 0 0
24413 2 5.386287243651494 24.36254196538834 10.274176679730756 0 0 0
24429 3 5.399922927867454 27.19308644305656 10.272277932005943 0 0 0
24417 3 6.708053178316759 23.436678336788653 7.962703368155314 0 0 0
24433 1 6.721789391209097 26.257995501482704 7.962499980405916 0 0 0
24415 3 10.726930209609222 23.3961508796913 10.264479279788084 0 0 0
24420 2 9.37477114691146 24.381792685501093 7.969631243793386 0 0 0
24418 3 8.054667177584681 25.31176971872026 10.2775680546446 0 0 0
24431 1 10.722060606493512 26.258152816557043 10.284973197254784 0 0 0
24436 3 9.397122205967197 27.2094939090422 7.973240787876804 0 0 0
24416 3 12.0497634198682 25.33001348472511 7.9679971201704385 0 0 0
24419 2 13.341504646573464 24.3837821640617 10.278138280613828 0 0 0
24438 1 14.591666162993134 26.389017782224116 7.962534167928058 0 0 0
24435 3 13.400302159441544 27.22614384821416 10.286539652483707 0 0 0
24422 2 14.803553190763798 23.480415732608613 7.960609336829389 0 0 0
24421 2 18.7121125510464 23.392529250662015 10.296616912751805 0 0 0
24437 2 18.75886697176084 26.314568932201492 10.254659854825535 0 0 0
24424 1 17.604107736432137 24.530818121842533 7.792218529819647 0 0 0
24423 2 16.07093197238459 25.31360351190872 10.26986285110048 0 0 0
24440 3 17.37542871882168 27.239342381421277 7.995884405530955 0 0 0
24446 1 1.3922980490225163 29.97730006577189 7.966654665137494 0 0 0
24428 2 0.06018239639765859 28.110975959106803 10.26609230185182 0 0 0
24444 3 0.09081042647658798 30.939048650903686 10.286177070023632 0 0 0
24441 3 2.7317700989278713 29.0890844008393 10.269386962550998 0 0 0
24442 3 4.055261126768709 30.97277739436502 7.979767247798085 0 0 0