LAMMPS data file via write_data, version 2 Aug 2023, timestep = 9139, units = metal

38640 atoms
3 atom types

-0.895208042210118 79.76877776221014 xlo xhi
-1.4389523045460135 129.71463511454783 ylo yhi
-0.7212551922264271 64.4740025822264 zlo zhi

Masses

1 92.90600000000001
2 180.948
3 47.88

Atoms # atomic

4 3 0.40501860746886637 0.43707807338515964 1.5687666885297749 0 0 0
1 1 3.1400505584350724 -1.4006528394900175 1.6364125424548006 0 0 0
5 3 5.781180723837754 -0.49669717479117 1.5966563120237056 0 0 0
61 1 3.0353802151466684 1.3557353795822558 1.57725426957228 0 0 0
10 2 8.44827218169423 0.46015544148544973 1.6304763463518022 0 0 0
67 1 11.26946973511244 1.3271533615310267 1.668737842699296 0 0 0
11 1 13.918339146604186 -0.5429572239186332 1.7243888173235142 0 0 0
16 1 16.553520768847317 0.3864374745232322 1.5572333234793352 0 0 0
64 1 0.48449044911278044 3.229897610748408 1.6394268818009397 0 0 0
66 3 1.7913471280178983 2.3323175653970396 -0.717628060224781 0 0 0
65 3 5.778629664045895 2.333369463786189 1.5072337014456074 0 0 0
121 1 3.11427956037157 4.258967636136875 1.5908745541116438 0 0 0
70 1 8.396492663738968 3.333531231838085 1.624754756358965 0 0 0
127 2 11.117837105095578 4.25512393849573 1.6145988075733002 0 0 0
72 2 9.866279924304104 2.3746543895079095 -0.6676759489251454 0 0 0
71 1 13.85572911094035 2.3660814765971008 1.6170465418552653 0 0 0
68 3 12.559109208552876 3.2748590259880443 -0.6801404486096732 0 0 0
78 3 17.944042892245722 2.2921126605196203 -0.6995118008203906 0 0 0
76 2 16.62125332760248 3.322736259777021 1.6253377221358933 0 0 0
133 3 19.268529455186 4.246387970358593 1.6191729237317294 0 0 0
124 2 0.41536621576602556 6.145224514751707 1.5512355973650347 0 0 0
125 1 5.791740666529202 5.140055283423281 1.6001482077305271 0 0 0
181 3 3.080579905625066 7.0796390524037545 1.574286160502744 0 0 0
185 1 5.70523876669715 8.047883709546435 1.6687848942992416 0 0 0
122 1 4.393591718829119 6.186856650583348 -0.7203720814333948 0 0 0
130 2 8.520782617421997 6.135440135194964 1.6038445123996448 0 0 0
187 2 11.192578493461735 7.1279786513142085 1.6252620374861706 0 0 0
128 2 12.555042936415395 6.106430257693056 -0.6846573556346894 0 0 0
131 1 13.874357825422814 5.136358873449412 1.6776335322083693 0 0 0
191 2 13.905229681519709 8.018531431482565 1.5903674717409442 0 0 0
195 1 15.260151952139319 7.080622983462688 -0.7182674938116734 0 0 0
193 1 19.15983292985186 7.055055040996973 1.5863601418240902 0 0 0
136 3 16.523425098175306 6.150579306691518 1.5834552587255037 0 0 0
184 2 0.4458008199563074 8.985830239461505 1.5478048963241868 0 0 0
182 1 4.4558529540522365 8.899567914745571 -0.7139315107361839 0 0 0
241 3 3.120024537512601 9.950621291810247 1.5453198511499122 0 0 0
245 1 5.768323230608875 10.838153456817865 1.6045156447575772 0 0 0
190 2 8.49334933427308 9.02306418236351 1.601044814475738 0 0 0
247 1 11.202276933372596 9.994853145505726 1.6034883079341489 0 0 0
252 1 9.769137897785752 10.91244088601163 -0.6828021722067512 0 0 0
251 1 13.926401088158844 10.890185269056909 1.654143496366948 0 0 0
196 2 16.62585274395079 9.017075510215482 1.615423167950972 0 0 0
258 2 17.974377693165035 10.93915411669304 -0.654247878972784 0 0 0
244 1 0.5787512687296178 11.825404015031193 1.6229377462986625 0 0 0
304 2 0.5105468580547535 14.715796272261482 1.6390436328618296 0 0 0
306 2 1.8173267516772402 13.75856363350624 -0.6898797684285268 0 0 0
242 2 4.420356917602118 11.842600482833852 -0.6737281943685471 0 0 0
301 3 3.1157697297260523 12.823877878373185 1.6146487268578806 0 0 0
305 2 5.777543136170566 13.733866792942415 1.6646220117320225 0 0 0
250 2 8.463476469739653 11.910560284731591 1.6979833670998992 0 0 0
310 3 8.459147116082866 14.714478611523866 1.5857095817094988 0 0 0
307 2 11.155214624876518 12.855668564534971 1.6253411321440432 0 0 0
312 3 9.857889723771533 13.72868633351465 -0.7048746063838411 0 0 0
308 3 12.563114479962437 14.730671608046046 -0.6223667198371801 0 0 0
311 1 13.937200020404783 13.757760977711232 1.683758066352632 0 0 0
256 3 16.55875252807522 11.825758048191027 1.585970816472652 0 0 0
316 2 16.661371282991137 14.596170506798813 1.6267203987748295 0 0 0
313 3 19.268952870725904 12.777299998637304 1.611852878379901 0 0 0
2763 1 -0.8559603451965634 -1.412667647266872 4.006512567631678 0 0 0
2766 3 1.766591066055308 -0.5096125410408724 3.8875965220588133 0 0 0
2762 2 4.401748267605616 0.49943098807471464 3.934660864294252 0 0 0
2769 3 7.1182518106512065 -1.4217401964554923 3.9437401073288427 0 0 0
2829 2 7.05975432948979 1.3950771419338373 3.904233948795722 0 0 0
2772 3 9.838074330430764 -0.5106898034072838 3.9125770393375716 0 0 0
2768 3 12.540083481313177 0.3996042210892391 3.9764821028120028 0 0 0
2835 2 15.217884561278828 1.4131528483175921 3.943823029901848 0 0 0
2778 2 17.811651050455353 -0.5300129837234675 3.9448491381706767 0 0 0
2826 3 1.7742734583408106 2.3444527871908707 3.900921923543997 0 0 0
2822 3 4.464968616988317 3.3216592932273237 3.890696983606986 0 0 0
2889 1 7.103396279614052 4.264260543885792 3.9118803729594545 0 0 0
2832 2 9.872118084024272 2.328670436830106 3.94792430264083 0 0 0
2828 2 12.522100362089567 3.3272675149686046 4.013267769099594 0 0 0
2895 3 15.185865455966734 4.293338478474528 3.912217702415348 0 0 0
2838 1 17.895106612140662 2.395150089956 4.0513959597595885 0 0 0
2886 2 1.752614728088279 5.208193300179116 3.8948080707621737 0 0 0
2946 2 1.8223288127523845 8.0832951027195 3.925913401601135 0 0 0
2882 2 4.396758313736554 6.197416367273236 3.917298373877222 0 0 0
2949 2 7.135203513666162 7.168245638110661 3.9215544471162005 0 0 0
2892 3 9.821026558861996 5.210723005513563 3.942253068608687 0 0 0
2952 2 9.830568019254047 8.039316701736368 3.936392797077903 0 0 0
2888 3 12.57493765897049 6.159579248107884 3.893511769840175 0 0 0
2955 1 15.33941981312921 7.106744139773216 3.8950409519991003 0 0 0
2898 2 17.860395920203814 5.215353747075355 3.9061204346845937 0 0 0
2958 3 17.961382727105313 8.078271957976117 3.941792464459531 0 0 0
3003 2 -0.8832104586171645 9.953903816532762 3.9269653289884654 0 0 0
3006 3 1.7934105956647852 10.898436368096657 3.891643356178967 0 0 0
2942 3 4.4529906139500905 9.021836403011987 3.929560300137046 0 0 0
3009 3 7.157732529781786 9.982124511136389 3.9019628811265004 0 0 0
3012 3 9.888294437963827 10.875027394673923 3.9223171663159233 0 0 0
2948 2 12.498009192187679 8.978583748245152 3.959461625841744 0 0 0
3015 1 15.20966413245865 9.970332735787542 3.960920615237218 0 0 0
3018 1 17.97723799254202 10.932281727597086 3.7714516599323646 0 0 0
3063 2 -0.8894238118751239 12.8478387036169 3.8873838238823524 0 0 0
3066 3 1.8262632368981342 13.752404071585993 3.953366225833575 0 0 0
3002 3 4.49268427888066 11.8729777287531 3.896666900631737 0 0 0
3062 1 4.446865313684975 14.708120081952703 4.004867694985092 0 0 0
3069 1 7.158013207253901 12.709690765394177 4.149768482553975 0 0 0
3072 3 9.773225904951182 13.74296186610836 3.9316072747627957 0 0 0
3008 1 12.50913328826693 11.868066913843421 3.9698550504083703 0 0 0
3068 3 12.483571917715027 14.69699174387916 3.9059067339963702 0 0 0
3075 3 15.22575822451149 12.77639696895319 3.9447406935202145 0 0 0
3078 3 17.94806073049554 13.721159036886972 3.9431050717761384 0 0 0
2764 2 0.5301929469067391 0.4756878369927787 6.177957022034431 0 0 0
5526 2 1.83810596374173 -0.4794795147995548 8.631054782759685 0 0 0
2761 2 3.1213209005550646 -1.3902895883400417 6.202619536497014 0 0 0
2821 3 3.1667416470829646 1.4456607132828219 6.236998530018646 0 0 0
5522 3 4.465848943893901 0.4699022545810514 8.570681428509191 0 0 0
2765 2 5.821667197752828 -0.4211522157331978 6.286972145872631 0 0 0
2770 2 8.562939782812139 0.4543989730392629 6.200089793043133 0 0 0
5529 1 7.246308275030338 -1.2856590857574732 8.620949773725174 0 0 0
5589 3 7.15486395269997 1.445124201434993 8.563737736994867 0 0 0
2827 3 11.195910709108485 1.3954622670769399 6.266351479507019 0 0 0
5532 3 9.855119380645323 -0.5252089170051117 8.561472333669085 0 0 0
5528 3 12.514486539074683 0.4400087974154055 8.578301247798619 0 0 0
16876 3 16.59914584751775 14.697206869902917 29.507419326255214 0 0 0
2771 1 13.921712514200363 -0.589598271912647 6.327047148070714 0 0 0
5595 3 15.187828959168217 1.4225220642940175 8.614404999519378 0 0 0
2833 1 19.184921635720055 1.514358877336351 6.302811542964559 0 0 0
2776 3 16.54076333277421 0.4605924838700531 6.273280638868883 0 0 0
5538 1 17.6390231608302 -0.46189070821634387 8.593475273486005 0 0 0
2824 1 0.4444665804991444 3.2963768247129965 6.157373866411693 0 0 0
5586 2 1.810789596640395 2.324175110413323 8.511457989802318 0 0 0
2881 1 3.1503627886049603 4.224502267362155 6.1564462538281575 0 0 0
5582 2 4.5100504681292195 3.2578142300684703 8.552911444639731 0 0 0
2825 3 5.851719830215134 2.4146637815666643 6.217656762803112 0 0 0
2830 1 8.507308095012858 3.3453663474153643 6.299663525481941 0 0 0
5649 3 7.190493780619448 4.312969092863694 8.540869849912742 0 0 0
2887 3 11.146239947212704 4.2235483888762 6.269118158378448 0 0 0
5592 1 9.764619564392323 2.2390111644164357 8.500265282293809 0 0 0
5588 2 12.538012252137461 3.2856923416211425 8.618565029786 0 0 0
2831 2 13.872064684048727 2.2877910685653218 6.31474501916705 0 0 0
5655 3 15.217778618876796 4.25504672788362 8.608579561036041 0 0 0
2836 3 16.512255014634643 3.3147907818230755 6.241542832065606 0 0 0
5598 3 17.884085672691846 2.343617269471586 8.590298485356916 0 0 0
5658 1 17.86166557696945 5.0924553452873 8.50544336552043 0 0 0
2893 3 19.25435120211689 4.260962345042123 6.255164678012554 0 0 0
2884 2 0.4268389875950616 6.167622493260412 6.226604916634997 0 0 0
5646 2 1.8546865196915878 5.185740912534235 8.590617731588472 0 0 0
5706 1 1.7968686581899305 8.060435077999125 8.505250684049406 0 0 0
2885 1 5.797974582109467 5.209600908000775 6.2576551205046345 0 0 0
2941 3 3.124403458251547 7.065021713226878 6.289898640794544 0 0 0
2945 1 5.682174299434778 8.129676004824399 6.203303386832311 0 0 0
5642 1 4.540989507558839 6.136028272259118 8.653391355475705 0 0 0
2890 2 8.523937277209997 6.182248038100915 6.259338003609877 0 0 0
5709 1 7.234052430466964 7.069303342068852 8.663295036896255 0 0 0
2947 2 11.242851781263477 7.023852620264632 6.223450565264293 0 0 0
5652 2 9.905744674817049 5.193424579478482 8.615426233073586 0 0 0
5712 1 9.880964497116517 8.047917596563991 8.577668994797802 0 0 0
2891 2 13.83245135428952 5.141083990768229 6.2368522875337735 0 0 0
2951 2 13.89210965895448 8.070254495226893 6.2781545751315235 0 0 0
5648 1 12.681134596867018 6.1723623679480255 8.6168594084247 0 0 0
5715 3 15.245938088413585 7.125483889594518 8.604789351926955 0 0 0
2953 1 19.234192024015844 7.063199510627662 6.2366156484449995 0 0 0
2896 1 16.500396197064187 6.1033570330551505 6.314978034696644 0 0 0
5718 1 17.864930824324922 8.02071557347101 8.697377170279493 0 0 0
2944 1 0.4619717133533709 9.029028606055341 6.268397094922912 0 0 0
5766 1 1.8128296034364733 10.952794485138403 8.691172366053713 0 0 0
3001 3 3.084066658933826 9.954700579052364 6.257746258398319 0 0 0
3005 3 5.80406393655518 10.89310567698438 6.251620598674528 0 0 0
5702 1 4.442434812920992 9.143646113871348 8.526896949565002 0 0 0
2950 1 8.485916164745529 9.117884541588513 6.174012631906932 0 0 0
5769 2 7.200442266479208 9.987566176146526 8.550023106410094 0 0 0
3007 3 11.194642790773822 9.900866082231136 6.290319178134279 0 0 0
5772 1 9.93973105201597 11.013132342454275 8.537351419848383 0 0 0
3011 1 13.767457320562771 10.991723274147455 6.331801721998322 0 0 0
5708 1 12.550290915528155 9.008627078990887 8.599836923104164 0 0 0
5775 1 15.279825960635083 9.949792173579837 8.625311445489364 0 0 0
2956 2 16.62818557238298 8.998904875775983 6.2902187340609235 0 0 0
5778 3 17.929433346110375 10.91624445210435 8.52663415826326 0 0 0
3004 2 0.4651829165364573 11.87878127401799 6.196846071052612 0 0 0
3064 3 0.4477073528568775 14.715276266146992 6.24548989969937 0 0 0
5826 1 1.7705682197627772 13.887761323026085 8.513079383126913 0 0 0
3061 1 3.2383122994740465 12.701536391835416 6.1635250184521 0 0 0
3065 3 5.79859074391017 13.783143622691814 6.271962261532642 0 0 0
5762 3 4.469723782101411 11.895327206447256 8.559146114236858 0 0 0
5822 1 4.412952786078865 14.727774008359528 8.500395886501861 0 0 0
3010 3 8.516390496010061 11.833467960681403 6.289180389852429 0 0 0
3070 3 8.47241427985955 14.721502749124221 6.283252196825867 0 0 0
5829 2 7.178190871706991 12.815464230975998 8.542891029439273 0 0 0
3067 2 11.108262651043466 12.788317984732387 6.2417135722623005 0 0 0
5832 3 9.846828564906897 13.744051229333447 8.60336692570796 0 0 0
5768 3 12.526821127011857 11.851275523211095 8.630493981888131 0 0 0
5828 1 12.459278963181639 14.621536987274535 8.567789762417895 0 0 0
3071 1 13.891741372497417 13.937780380067009 6.091770912702875 0 0 0
5835 2 15.211774425179048 12.842409240728644 8.510848838782712 0 0 0
3016 1 16.585819195378697 11.837484778136382 6.206263086772564 0 0 0
3076 2 16.575834528411008 14.642259391608189 6.231453628698939 0 0 0
5838 2 17.933039511807642 13.759853928048642 8.637632127899455 0 0 0
16816 2 16.581041392070958 11.843988853546474 29.498355579013698 0 0 0
5524 3 0.46872886350928755 0.43923700501694507 10.910657665027262 0 0 0
5525 2 5.808266350491262 -0.4602952166687545 10.917889758159856 0 0 0
5581 2 3.126447763759184 1.371381821447093 10.88413156516869 0 0 0
5530 3 8.505057570805478 0.4876439008210942 10.932146301442573 0 0 0
5527 2 11.140334366308723 -1.4029116753638713 10.898063221908288 0 0 0
5587 2 11.157029628109054 1.430269382861716 10.86840339750409 0 0 0
5531 1 13.951330398188913 -0.4070587901318162 10.772908629874598 0 0 0
5593 2 19.24432551604808 1.4039523842572748 10.915148365236984 0 0 0
5536 3 16.54816365040862 0.4598938934215268 10.963925395995757 0 0 0
5584 2 0.4693461581725661 3.2714774580225217 10.877365486152808 0 0 0
5641 3 3.153319463462958 4.234311037867107 10.935179428253997 0 0 0
5585 1 5.874162946394443 2.4139764350744892 10.810335841639837 0 0 0
5590 2 8.51439418499033 3.343210354468242 10.870815174307033 0 0 0
5647 1 11.265081630680037 4.319432637805851 11.032729663189373 0 0 0
5591 3 13.85942919927331 2.357749367356748 10.977631671301875 0 0 0
5653 2 19.215758655601626 4.25289764126443 10.930148470666845 0 0 0
5596 1 16.433262789001496 3.191978462013984 10.770117345126561 0 0 0
5644 1 0.4745884186230278 6.13033284304057 10.906556442024426 0 0 0
5701 1 3.1964792440936574 7.106936845885397 10.904916996443406 0 0 0
5645 3 5.87790416851963 5.212334033711749 10.922249799090018 0 0 0
5705 1 5.897677370120016 8.039181185061794 10.934911530368016 0 0 0
5650 3 8.568868725698287 6.202096792231461 10.955385815289226 0 0 0
5707 1 11.212773704147532 7.085742677191297 10.942044862876429 0 0 0
5651 3 13.882124965566108 5.237364475768673 10.935043654376342 0 0 0
5711 1 14.134209795955046 8.002873988442467 10.990603991126942 0 0 0
5656 3 16.621692095720224 6.073243639159935 10.90901430007026 0 0 0
5704 1 0.40886520053840036 9.030635984595445 10.866962202186574 0 0 0
5761 3 3.1174790566166832 9.927311353704498 10.880407595292835 0 0 0
5765 2 5.811338230663508 10.956820209271722 10.87757851245949 0 0 0
5710 1 8.540126172636636 9.031475056585966 10.917428696518057 0 0 0
5767 1 11.253596721237733 9.956159980839292 10.92382939092544 0 0 0
5771 1 13.887301035339647 10.935455500746075 10.90906656746822 0 0 0
5773 1 19.1845279262949 10.117885946392136 10.827284515262964 0 0 0
5716 3 16.614930292871684 9.033316615572339 10.91122474447747 0 0 0
5764 3 0.4145190875024194 11.848751383929336 10.899167129909495 0 0 0
5824 1 0.44919125602034227 14.661895724223337 10.85603273492021 0 0 0
5821 2 3.128074043672646 12.786078221691506 10.855670914343776 0 0 0
5825 2 5.836028287587106 13.81470644760117 10.878093100890894 0 0 0
5770 3 8.518537292480616 11.843353269108274 10.876520538406911 0 0 0
5830 2 8.5624481758817 14.669523761507005 10.892670436148267 0 0 0
5827 1 11.14669804928815 12.81106693475646 10.992130628786173 0 0 0
5831 1 13.858345767510121 13.834666907872881 10.87129533592604 0 0 0
5833 3 19.251476202489812 12.849849455586336 10.937025820297778 0 0 0
5776 2 16.605465967357105 11.893368152617676 10.86116930209346 0 0 0
5836 2 16.516956796048646 14.840287774040624 10.85539030154722 0 0 0
8283 3 -0.8820846868168577 -1.4037176947281251 13.216881190089007 0 0 0
8286 3 1.8244732960715992 -0.49809410098501095 13.250724663389692 0 0 0
8284 3 0.44899323758658716 0.45124044547308934 15.535109215492636 0 0 0
8282 1 4.467181832639727 0.3161744014175388 13.291985112180777 0 0 0
8349 2 7.159759305186571 1.4008201999134091 13.24235279420233 0 0 0
8289 3 7.162852921804191 -1.436304276825979 13.249116149453926 0 0 0
8292 3 9.833717677465453 -0.4863526202095748 13.270751169801134 0 0 0
8288 1 12.496909918950744 0.45269550417862503 13.256763429945332 0 0 0
8295 3 15.192911563483639 -1.4203558221607502 13.224433267296819 0 0 0
8355 1 15.216619578482751 1.2728581937285923 13.263932872803219 0 0 0
8298 3 17.91045873795274 -0.4873130502963378 13.232671613566954 0 0 0
8296 3 16.591885793950137 0.4893427511150795 15.570643853890834 0 0 0
8293 2 19.203072237647483 -1.432717314893045 15.497030057227091 0 0 0
8346 2 1.788352024045799 2.293192690797545 13.267799260570124 0 0 0
8403 1 -0.8825984628284427 4.271046211632456 13.227447647285505 0 0 0
8342 1 4.469883313878998 3.316399335369805 13.246235646082766 0 0 0
8401 3 3.1393876602238535 4.2508644191376606 15.508981438557173 0 0 0
8409 1 7.241593246969477 4.3325713284169245 13.226611793740547 0 0 0
8352 2 9.849563901813163 2.322355521658923 13.280919143978386 0 0 0
8348 1 12.557862215859895 3.361509980233736 13.226285139206606 0 0 0
8415 2 15.25799556214936 4.232293683466219 13.21480126947463 0 0 0
8358 2 17.886488187419175 2.359279497381301 13.249810122305952 0 0 0
8406 1 1.8346754840203134 5.2069830193546665 13.203236210523006 0 0 0
8466 2 1.7932589566147246 8.105583662267476 13.187101038317468 0 0 0
8404 1 0.489092429082787 6.129584508678812 15.560537831415708 0 0 0
8402 1 4.492334439352437 6.103536989186867 13.183255531572183 0 0 0
8461 2 3.156732846154436 7.15904718482518 15.56838659503668 0 0 0
8469 1 7.223878859136778 7.132914992681825 13.223329027618867 0 0 0
8412 1 9.839155756595133 5.224182285506379 13.284830522316568 0 0 0
8472 1 9.862172241051436 8.033405686678433 13.260346181843975 0 0 0
8408 1 12.66086899732592 6.178161898896085 13.278786115213286 0 0 0
8475 3 15.27105263123605 7.097791662350581 13.275112618357996 0 0 0
8471 2 14.019018104501622 8.18415693668478 15.556349661402571 0 0 0
8418 1 17.89616801549869 5.275694743351914 13.246797597001146 0 0 0
8478 1 17.82757888484852 8.05386677546818 13.2091861286648 0 0 0
8523 1 -0.8706997813837734 9.937119164836133 13.246258874641086 0 0 0
8526 1 1.8402349158667601 10.951345626593183 13.131695193158858 0 0 0
8464 1 0.417156911717156 8.995008132533508 15.523831275806476 0 0 0
8462 2 4.474266179909767 9.046907073773141 13.244161248188579 0 0 0
8521 3 3.082951308774434 9.985331921536513 15.5417734237114 0 0 0
8525 3 5.800758709832601 10.966176021317535 15.541301574753625 0 0 0
8529 2 7.172870144531089 10.03709607156876 13.27912487951187 0 0 0
8532 2 9.856041845438861 10.958140495043011 13.25869249760993 0 0 0
8468 2 12.581333704903981 9.0889008657112 13.307070110590242 0 0 0
8535 3 15.24431229517771 9.99879002820646 13.228703522562487 0 0 0
8531 3 13.875908165441428 10.9631213027839 15.565313111284294 0 0 0
8538 2 17.90512111695598 10.939363582099238 13.232357799354048 0 0 0
8476 3 16.651950467237945 8.992659655017322 15.534850244873788 0 0 0
8586 1 1.8005230765334337 13.775653720188128 13.22692981733715 0 0 0
8524 2 0.477640986055587 11.828310885443642 15.56483941964186 0 0 0
8522 1 4.522512012547523 11.878040109575467 13.245101792353607 0 0 0
8582 1 4.467439707382534 14.709081995579181 13.158270878853791 0 0 0
8581 2 3.1772728654658855 12.802823280462729 15.564615982409334 0 0 0
8589 3 7.1572918795580325 12.85130251571722 13.212761728694925 0 0 0
8590 3 8.48982097577523 14.739656319762119 15.522964277136712 0 0 0
8530 3 8.536850512846526 11.877229536462522 15.570300991065684 0 0 0
8592 3 9.852251711089085 13.775151280741698 13.224187313490292 0 0 0
8588 2 12.516795486715564 14.823461226116512 13.210288592898618 0 0 0
8587 1 11.162221903313373 12.833821626997622 15.41421202516686 0 0 0
8528 3 12.55685749225301 11.901450244522568 13.218957237081966 0 0 0
8595 2 15.20663191586334 12.831375991160604 13.239141735500823 0 0 0
8591 1 13.955841576787147 13.783443526849048 15.536490561472512 0 0 0
8598 1 17.896371054645638 13.814066585920685 13.335140113175065 0 0 0
8593 3 19.248536191728224 12.828414964790555 15.56273949516825 0 0 0
8596 3 16.530380188547927 14.731603620626014 15.56679281190686 0 0 0
11046 1 1.7547994042335 -0.42626910198467033 17.838213772661486 0 0 0
11103 3 -0.8409689202027618 1.4208157657186264 17.896026105434025 0 0 0
8285 3 5.801131518781162 -0.4959371212456496 15.582972980839097 0 0 0
8341 3 3.1477414962094894 1.3689915966151447 15.59832743025172 0 0 0
11042 2 4.583151220234666 0.3724032569977796 17.95852471918599 0 0 0
8290 2 8.469986828956184 0.43030552050150217 15.62389633705323 0 0 0
11109 3 7.16308853230551 1.4327819706284597 17.910914126290713 0 0 0
8347 1 11.20589066388216 1.414642451174501 15.59815763085946 0 0 0
11052 3 9.875489293893999 -0.49860902822680436 17.86828132851648 0 0 0
11048 1 12.500037260673494 0.4193700722086335 17.976532831877456 0 0 0
8291 2 13.972063167896808 -0.5292767687859979 15.636095515388124 0 0 0
11115 2 15.243686449032378 1.3803439868019662 17.917107640575413 0 0 0
11058 1 17.826596906653595 -0.4529096207722757 17.876371000507586 0 0 0
8344 1 0.5070267788254134 3.213923152797105 15.655194144371725 0 0 0
11106 1 1.8460219513433098 2.6139591570322867 17.889966567748086 0 0 0
8345 1 5.706270970948923 2.3006620933643034 15.69215323165473 0 0 0
11102 3 4.508672621304186 3.2956760390413926 17.905879757652613 0 0 0
8350 2 8.437182996293348 3.3193666232898376 15.616855879336093 0 0 0
11169 3 7.170477957347198 4.279615932701241 17.9122192719997 0 0 0
8407 1 11.217722700194058 4.273548881122698 15.735436384889953 0 0 0
11112 2 9.825541177520073 2.3593822212040307 17.884576526241066 0 0 0
8351 2 13.918036570241677 2.382597878495691 15.598666749784574 0 0 0
11108 3 12.56795035221065 3.2871297002058983 17.898680653312823 0 0 0
11175 3 15.244673457218575 4.245136567075207 17.93388476834369 0 0 0
8356 1 16.586993955783957 3.3263480668677317 15.675098154973876 0 0 0
11118 2 17.996581628253992 2.4287393407091944 17.899005071622714 0 0 0
11166 3 1.8197149336884617 5.30808368645396 17.873476304859327 0 0 0
11226 1 1.8048621097730009 8.133003486259375 17.874758714459286 0 0 0
8405 1 5.7955757589070025 5.216086161180225 15.663088052296457 0 0 0
11162 1 4.490634803043582 6.062497975214058 17.865750265915285 0 0 0
8465 2 5.8512672671158015 8.1602937655494 15.629801899305146 0 0 0
8410 2 8.496531036213668 6.201225924409094 15.683564969184648 0 0 0
11229 3 7.144746822194104 7.140927816406114 17.915496376783615 0 0 0
8467 2 11.262870627794978 7.170560508342705 15.64386915103784 0 0 0
11172 3 9.87051079045521 5.223314498555103 17.914635160278877 0 0 0
11232 3 9.85782353424375 8.086854697894235 17.890876937853474 0 0 0
8411 2 13.912444939932808 5.245256856200686 15.645680122945022 0 0 0
11168 3 12.622222970300463 6.181971094638208 17.930491554245265 0 0 0
11235 1 15.348617581382978 7.050147535976718 17.87084012625274 0 0 0
8416 1 16.717150372243992 6.236290605661283 15.611070264937508 0 0 0
11178 3 17.963476546944015 5.215029838102322 17.88657058407483 0 0 0
11238 3 17.93475490613123 8.089487292591354 17.891679167874674 0 0 0
11286 1 1.8072875004818338 10.893207422567098 17.88172663812804 0 0 0
11222 3 4.426869480257479 8.965558513018301 17.89024992010968 0 0 0
8470 2 8.589680669232674 9.075342281827764 15.605369566549623 0 0 0
11289 2 7.118946908860636 9.958233931970975 17.896197629493756 0 0 0
8527 3 11.212651706213368 10.029382117300045 15.582633779483302 0 0 0
11292 1 9.863414448686608 10.852018989908744 17.851169716872715 0 0 0
11228 2 12.557175084339116 9.01300426436547 17.818021634412492 0 0 0
11295 3 15.268895966439405 9.9166689025894 17.917591624282977 0 0 0
8533 2 19.238297495371196 9.994722220943354 15.605811560604868 0 0 0
11298 3 17.939669959494026 10.972640472031674 17.917575767655418 0 0 0
8584 2 0.45235028799147614 14.67258189602117 15.586486727376094 0 0 0
11346 2 1.8008084894545326 13.74477167770018 17.90256378640634 0 0 0
11282 2 4.50145662641357 11.78783741555415 17.902079786834307 0 0 0
11342 1 4.490209066772288 14.772564775066513 18.02083891469546 0 0 0
8585 1 5.9337651950607695 13.752770922729653 15.5823240853276 0 0 0
11349 1 7.173040822812769 12.921031687614441 17.760589195944945 0 0 0
11352 1 9.825797581948775 13.81577058280336 17.77252083849728 0 0 0
11288 1 12.555384713187214 11.852064041215483 17.836839390760854 0 0 0
11348 1 12.55339716210331 14.792858075202725 17.85972164206297 0 0 0
11355 1 15.215297839421895 12.742145880389355 17.900634897977607 0 0 0
8536 2 16.556241339441364 11.774488502420553 15.617012022048538 0 0 0
11358 1 17.926519264774644 13.798016808121849 17.76583658617413 0 0 0
11044 1 0.45637823725485216 0.5711598950326615 20.149937296119283 0 0 0
11041 3 3.1285008361439295 -1.3678542005991579 20.203590970462834 0 0 0
11101 1 3.1152342124593817 1.500005815583084 20.216724228875698 0 0 0
11045 3 5.888352431808266 -0.4356310173469459 20.25300926116733 0 0 0
11050 1 8.510209811079037 0.3753976588289923 20.16629619369849 0 0 0
11107 1 11.140211475026975 1.3992257275674798 20.298675997346816 0 0 0
11047 3 11.209698124826652 -1.4332717717107115 20.231643081925682 0 0 0
11051 3 13.889814141228856 -0.45552029356519647 20.227915813211936 0 0 0
11056 3 16.583788791748013 0.47512712391567175 20.21757059995464 0 0 0
11104 3 0.4392342290257621 3.335548567933567 20.242060466897506 0 0 0
11105 2 5.818267122833236 2.385773880238911 20.22676085564933 0 0 0
11161 3 3.1885036365433446 4.290272738799097 20.27145937630415 0 0 0
11110 2 8.54217046699635 3.3517324411853537 20.217532790720085 0 0 0
11167 1 11.260773291918316 4.243290893815242 20.133758131957137 0 0 0
11111 2 13.897211693477782 2.363941092219396 20.24365089437615 0 0 0
11173 3 19.2620633393478 4.255851873268693 20.247274377953307 0 0 0
11116 1 16.633274336807425 3.3620093063041327 20.171832580721315 0 0 0
11164 1 0.5181277017790624 6.067733540720968 20.157844334379256 0 0 0
11221 1 3.114483016190404 7.110081110908238 20.213017149766678 0 0 0
11165 1 5.878128886156503 5.242094133822128 20.153550464592094 0 0 0
11225 2 5.828528680342889 8.132586821933378 20.202562690840985 0 0 0
11170 1 8.487957253529567 6.249589470808648 20.11599340754213 0 0 0
11227 1 11.208025370306729 7.126946392682686 20.08172406049875 0 0 0
11171 1 13.959292000345991 5.200689999095272 20.290471526414702 0 0 0
11231 2 13.953132828044216 8.05621085473452 20.180753543808933 0 0 0
11176 3 16.59484724115369 6.176521168145913 20.203065546773246 0 0 0
11224 2 0.3783535491896506 8.981928721528991 20.22254874193172 0 0 0
11281 2 3.1212631793520975 9.977791176969589 20.273026909599206 0 0 0
11285 1 5.834323639287602 10.998934857755062 20.37475924197158 0 0 0
11230 3 8.503547486301112 9.025682698333084 20.21007988081371 0 0 0
11287 1 11.200238039955057 9.912621489189608 20.2638629423419 0 0 0
11291 1 13.866282696107257 10.880365522181942 20.21785050560261 0 0 0
11236 1 16.745337550599817 8.95677610031842 20.186582627476074 0 0 0
11284 2 0.42594967191745087 11.842659656765894 20.249842984278988 0 0 0
11344 1 0.4728472840746368 14.76392746037238 20.235512930007168 0 0 0
11341 2 3.1775928427875284 12.836016659753348 20.296348911867675 0 0 0
11345 3 5.819108442090731 13.769051665480832 20.220910763234333 0 0 0
11290 2 8.47428397895999 11.891030084008902 20.20402096968091 0 0 0
11350 1 8.31952896944057 14.738279666011284 20.215739662817647 0 0 0
11347 1 11.215356186517683 12.817770711606164 20.16873502752896 0 0 0
11351 1 13.859089879445724 13.729409017814364 20.31071022041 0 0 0
11353 2 19.2486595214443 12.819254813121422 20.193595706858613 0 0 0
11296 1 16.594082434194988 11.815903584939466 20.199202050710102 0 0 0
11356 2 16.55956772963635 14.69052819744881 20.23447146557025 0 0 0
13804 2 0.43263601707372495 0.4533995095446454 24.874020848697498 0 0 0
13806 1 1.8131721939684864 -0.48909642652830937 22.542810886460572 0 0 0
13802 2 4.536826302162268 0.39467800039098067 22.531336786439013 0 0 0
13805 1 5.772234618216705 -0.4695956075259737 24.971876698429973 0 0 0
13861 2 3.1320362516562104 1.377529693289233 24.89738159239416 0 0 0
13810 1 8.57174792938281 0.43401575432522915 24.962646070712314 0 0 0
13869 1 7.338510393617872 1.3071788504394701 22.532520032904603 0 0 0
13812 3 9.85996076029281 -0.5121927277833707 22.600710132483478 0 0 0
13867 2 11.24189122139872 1.4006615203414552 24.97920153832941 0 0 0
13808 2 12.514914316641132 0.5018140722677092 22.548534315624764 0 0 0
13807 3 11.277712387247545 -1.4334257387014868 24.907649423888184 0 0 0
13811 1 13.97200739135287 -0.43078315034499726 24.873932051631865 0 0 0
13875 2 15.250883280502736 1.4048637049178192 22.54459570531056 0 0 0
13815 3 15.21417195608287 -1.4263238343498676 22.542507500068858 0 0 0
13813 3 19.244198835232883 -1.4220197437140254 24.933281304684137 0 0 0
13873 2 19.263926306249616 1.4217891187989202 24.875533315351927 0 0 0
13816 3 16.560404871324554 0.46125329566054984 24.89798659912983 0 0 0
13818 2 17.896251460625603 -0.4363449684990474 22.607715751650275 0 0 0
13864 1 0.4258782254322336 3.3299456676317782 24.851125260858435 0 0 0
13866 3 1.787824763385771 2.324796549084749 22.56675343896011 0 0 0
13862 1 4.3357580065881685 3.3023526348353034 22.603661616957577 0 0 0
13921 1 3.1597824934063206 4.250311614098175 24.894483196092043 0 0 0
13865 2 5.860939724335951 2.340482357900955 24.847160501517195 0 0 0
13870 2 8.577816279306909 3.334494825327052 24.872207401140972 0 0 0
13929 2 7.114437445173476 4.231357817654015 22.550759710217925 0 0 0