 # Bcc Nb oriented X=[11-2], Y=[111], Z=[1-10].
  
       38640  atoms
           2  atom types
 
      0.000000000000      81.089523390000  xlo xhi
      0.000000000000     131.879589310000  ylo yhi
      0.000000000000      65.543881420000  zlo zhi
 
Masses
 
            1   180.94788000            # Ta
            2   92.90638000             # Nb
 
Atoms # atomic
 
         1    1        4.054476169500       0.000000000000       2.340853188759
         2    1        5.405968496298       1.911297917973       0.000000000000
         3    1        0.000000000000       0.000000000000       0.000000000000
         4    2        1.351492326798       1.911297917973       2.340853188759
         5    2        6.757460012202       0.955649618384       2.340853188759
         6    2        2.702983842702       0.955649618384       0.000000000000
         7    2       12.163428508500       0.000000000000       2.340853188759
         8    1       13.514920835298       1.911297917973       0.000000000000
         9    2        8.108952339000       0.000000000000       0.000000000000
        10    2        9.460444665798       1.911297917973       2.340853188759
        11    1       14.866412351202       0.955649618384       2.340853188759
        12    1       10.811936181702       0.955649618384       0.000000000000
        13    1       20.272380847500       0.000000000000       2.340853188759
        14    1       21.623873174298       1.911297917973       0.000000000000
        15    1       16.217904678000       0.000000000000       0.000000000000
        16    1       17.569397004798       1.911297917973       2.340853188759
        17    2       22.975364690202       0.955649618384       2.340853188759
        18    1       18.920888520702       0.955649618384       0.000000000000
        19    1       28.381333186500       0.000000000000       2.340853188759
        20    1       29.732825513298       1.911297917973       0.000000000000
        21    1       24.326857017000       0.000000000000       0.000000000000
        22    1       25.678349343798       1.911297917973       2.340853188759
        23    1       31.084317029202       0.955649618384       2.340853188759
        24    2       27.029840859702       0.955649618384       0.000000000000
        25    2       36.490285525500       0.000000000000       2.340853188759
        26    2       37.841777852298       1.911297917973       0.000000000000
        27    2       32.435809356000       0.000000000000       0.000000000000
        28    2       33.787301682798       1.911297917973       2.340853188759
        29    2       39.193269368202       0.955649618384       2.340853188759
        30    2       35.138793198702       0.955649618384       0.000000000000
        31    2       44.599237864500       0.000000000000       2.340853188759
        32    1       45.950730191298       1.911297917973       0.000000000000
        33    2       40.544761695000       0.000000000000       0.000000000000
        34    2       41.896254021798       1.911297917973       2.340853188759
        35    1       47.302221707202       0.955649618384       2.340853188759
        36    1       43.247745537702       0.955649618384       0.000000000000
        37    1       52.708190203500       0.000000000000       2.340853188759
        38    1       54.059682530298       1.911297917973       0.000000000000
        39    2       48.653714034000       0.000000000000       0.000000000000
        40    2       50.005206360798       1.911297917973       2.340853188759
        41    2       55.411174046202       0.955649618384       2.340853188759
        42    1       51.356697876702       0.955649618384       0.000000000000
        43    2       60.817142542500       0.000000000000       2.340853188759
        44    2       62.168634869298       1.911297917973       0.000000000000
        45    1       56.762666373000       0.000000000000       0.000000000000
        46    2       58.114158699798       1.911297917973       2.340853188759
        47    2       63.520126385202       0.955649618384       2.340853188759
        48    2       59.465650215702       0.955649618384       0.000000000000
        49    2       68.926094881500       0.000000000000       2.340853188759
        50    2       70.277587208298       1.911297917973       0.000000000000
        51    2       64.871618712000       0.000000000000       0.000000000000
        52    2       66.223111038798       1.911297917973       2.340853188759
        53    1       71.629078724202       0.955649618384       2.340853188759
        54    2       67.574602554702       0.955649618384       0.000000000000
        55    1       77.035047220500       0.000000000000       2.340853188759
        56    2       78.386539547298       1.911297917973       0.000000000000
        57    1       72.980571051000       0.000000000000       0.000000000000
        58    2       74.332063377798       1.911297917973       2.340853188759
        59    2       79.738031063202       0.955649618384       2.340853188759
        60    2       75.683554893702       0.955649618384       0.000000000000
        61    1        4.054476169500       2.866947536357       2.340853188759
        62    1        5.405968496298       4.778245454329       0.000000000000
        63    2        0.000000000000       2.866947536357       0.000000000000
        64    2        1.351492326798       4.778245454329       2.340853188759
        65    2        6.757460012202       3.822597154741       2.340853188759
        66    2        2.702983842702       3.822597154741       0.000000000000
        67    2       12.163428508500       2.866947536357       2.340853188759
        68    2       13.514920835298       4.778245454329       0.000000000000
        69    2        8.108952339000       2.866947536357       0.000000000000
        70    2        9.460444665798       4.778245454329       2.340853188759
        71    1       14.866412351202       3.822597154741       2.340853188759
        72    2       10.811936181702       3.822597154741       0.000000000000
        73    1       20.272380847500       2.866947536357       2.340853188759
        74    1       21.623873174298       4.778245454329       0.000000000000
        75    1       16.217904678000       2.866947536357       0.000000000000
        76    1       17.569397004798       4.778245454329       2.340853188759
        77    1       22.975364690202       3.822597154741       2.340853188759
        78    1       18.920888520702       3.822597154741       0.000000000000
        79    1       28.381333186500       2.866947536357       2.340853188759
        80    2       29.732825513298       4.778245454329       0.000000000000
        81    1       24.326857017000       2.866947536357       0.000000000000
        82    1       25.678349343798       4.778245454329       2.340853188759
        83    2       31.084317029202       3.822597154741       2.340853188759
        84    1       27.029840859702       3.822597154741       0.000000000000
        85    1       36.490285525500       2.866947536357       2.340853188759
        86    2       37.841777852298       4.778245454329       0.000000000000
        87    1       32.435809356000       2.866947536357       0.000000000000
        88    1       33.787301682798       4.778245454329       2.340853188759
        89    1       39.193269368202       3.822597154741       2.340853188759
        90    1       35.138793198702       3.822597154741       0.000000000000
        91    1       44.599237864500       2.866947536357       2.340853188759
        92    2       45.950730191298       4.778245454329       0.000000000000
        93    2       40.544761695000       2.866947536357       0.000000000000
        94    1       41.896254021798       4.778245454329       2.340853188759
        95    1       47.302221707202       3.822597154741       2.340853188759
        96    1       43.247745537702       3.822597154741       0.000000000000
        97    1       52.708190203500       2.866947536357       2.340853188759
        98    1       54.059682530298       4.778245454329       0.000000000000
        99    1       48.653714034000       2.866947536357       0.000000000000
       100    1       50.005206360798       4.778245454329       2.340853188759
       101    1       55.411174046202       3.822597154741       2.340853188759
       102    1       51.356697876702       3.822597154741       0.000000000000
       103    1       60.817142542500       2.866947536357       2.340853188759
       104    1       62.168634869298       4.778245454329       0.000000000000
       105    1       56.762666373000       2.866947536357       0.000000000000
       106    2       58.114158699798       4.778245454329       2.340853188759
       107    1       63.520126385202       3.822597154741       2.340853188759
       108    2       59.465650215702       3.822597154741       0.000000000000
       109    2       68.926094881500       2.866947536357       2.340853188759
       110    2       70.277587208298       4.778245454329       0.000000000000
       111    1       64.871618712000       2.866947536357       0.000000000000
       112    2       66.223111038798       4.778245454329       2.340853188759
       113    2       71.629078724202       3.822597154741       2.340853188759
       114    2       67.574602554702       3.822597154741       0.000000000000
       115    1       77.035047220500       2.866947536357       2.340853188759
       116    2       78.386539547298       4.778245454329       0.000000000000
       117    2       72.980571051000       2.866947536357       0.000000000000
       118    1       74.332063377798       4.778245454329       2.340853188759
       119    1       79.738031063202       3.822597154741       2.340853188759
       120    1       75.683554893702       3.822597154741       0.000000000000
       121    1        4.054476169500       5.733895072713       2.340853188759
       122    2        5.405968496298       7.645192990686       0.000000000000
       123    1        0.000000000000       5.733895072713       0.000000000000
       124    1        1.351492326798       7.645192990686       2.340853188759
       125    1        6.757460012202       6.689544691098       2.340853188759
       126    1        2.702983842702       6.689544691098       0.000000000000
       127    1       12.163428508500       5.733895072713       2.340853188759
       128    1       13.514920835298       7.645192990686       0.000000000000
       129    1        8.108952339000       5.733895072713       0.000000000000
       130    2        9.460444665798       7.645192990686       2.340853188759
       131    1       14.866412351202       6.689544691098       2.340853188759
       132    1       10.811936181702       6.689544691098       0.000000000000
       133    2       20.272380847500       5.733895072713       2.340853188759
       134    1       21.623873174298       7.645192990686       0.000000000000
       135    2       16.217904678000       5.733895072713       0.000000000000
       136    2       17.569397004798       7.645192990686       2.340853188759
       137    1       22.975364690202       6.689544691098       2.340853188759
       138    1       18.920888520702       6.689544691098       0.000000000000
       139    1       28.381333186500       5.733895072713       2.340853188759
       140    1       29.732825513298       7.645192990686       0.000000000000
       141    2       24.326857017000       5.733895072713       0.000000000000
       142    2       25.678349343798       7.645192990686       2.340853188759
       143    2       31.084317029202       6.689544691098       2.340853188759
       144    1       27.029840859702       6.689544691098       0.000000000000
       145    2       36.490285525500       5.733895072713       2.340853188759
       146    1       37.841777852298       7.645192990686       0.000000000000
       147    1       32.435809356000       5.733895072713       0.000000000000
       148    2       33.787301682798       7.645192990686       2.340853188759
       149    1       39.193269368202       6.689544691098       2.340853188759
       150    2       35.138793198702       6.689544691098       0.000000000000
       151    2       44.599237864500       5.733895072713       2.340853188759
       152    2       45.950730191298       7.645192990686       0.000000000000
       153    1       40.544761695000       5.733895072713       0.000000000000
       154    2       41.896254021798       7.645192990686       2.340853188759
       155    1       47.302221707202       6.689544691098       2.340853188759
       156    1       43.247745537702       6.689544691098       0.000000000000
       157    1       52.708190203500       5.733895072713       2.340853188759
       158    1       54.059682530298       7.645192990686       0.000000000000
       159    2       48.653714034000       5.733895072713       0.000000000000
       160    2       50.005206360798       7.645192990686       2.340853188759
       161    2       55.411174046202       6.689544691098       2.340853188759
       162    1       51.356697876702       6.689544691098       0.000000000000
       163    1       60.817142542500       5.733895072713       2.340853188759
       164    1       62.168634869298       7.645192990686       0.000000000000
       165    1       56.762666373000       5.733895072713       0.000000000000
       166    2       58.114158699798       7.645192990686       2.340853188759
       167    2       63.520126385202       6.689544691098       2.340853188759
       168    2       59.465650215702       6.689544691098       0.000000000000
       169    1       68.926094881500       5.733895072713       2.340853188759
       170    2       70.277587208298       7.645192990686       0.000000000000
       171    2       64.871618712000       5.733895072713       0.000000000000
       172    2       66.223111038798       7.645192990686       2.340853188759
       173    2       71.629078724202       6.689544691098       2.340853188759
       174    1       67.574602554702       6.689544691098       0.000000000000
       175    2       77.035047220500       5.733895072713       2.340853188759
       176    2       78.386539547298       7.645192990686       0.000000000000
       177    2       72.980571051000       5.733895072713       0.000000000000
       178    2       74.332063377798       7.645192990686       2.340853188759
       179    1       79.738031063202       6.689544691098       2.340853188759
       180    2       75.683554893702       6.689544691098       0.000000000000
       181    2        4.054476169500       8.600842609070       2.340853188759
       182    2        5.405968496298      10.512140527043       0.000000000000
       183    2        0.000000000000       8.600842609070       0.000000000000
       184    1        1.351492326798      10.512140527043       2.340853188759
       185    2        6.757460012202       9.556492227454       2.340853188759
       186    2        2.702983842702       9.556492227454       0.000000000000
       187    1       12.163428508500       8.600842609070       2.340853188759
       188    1       13.514920835298      10.512140527043       0.000000000000
       189    2        8.108952339000       8.600842609070       0.000000000000
       190    1        9.460444665798      10.512140527043       2.340853188759
       191    1       14.866412351202       9.556492227454       2.340853188759
       192    2       10.811936181702       9.556492227454       0.000000000000
       193    2       20.272380847500       8.600842609070       2.340853188759
       194    2       21.623873174298      10.512140527043       0.000000000000
       195    2       16.217904678000       8.600842609070       0.000000000000
       196    1       17.569397004798      10.512140527043       2.340853188759
       197    2       22.975364690202       9.556492227454       2.340853188759
       198    2       18.920888520702       9.556492227454       0.000000000000
       199    1       28.381333186500       8.600842609070       2.340853188759
       200    1       29.732825513298      10.512140527043       0.000000000000
       201    1       24.326857017000       8.600842609070       0.000000000000
       202    2       25.678349343798      10.512140527043       2.340853188759
       203    2       31.084317029202       9.556492227454       2.340853188759
       204    2       27.029840859702       9.556492227454       0.000000000000
       205    2       36.490285525500       8.600842609070       2.340853188759
       206    1       37.841777852298      10.512140527043       0.000000000000
       207    2       32.435809356000       8.600842609070       0.000000000000
       208    2       33.787301682798      10.512140527043       2.340853188759
       209    2       39.193269368202       9.556492227454       2.340853188759
       210    2       35.138793198702       9.556492227454       0.000000000000
       211    2       44.599237864500       8.600842609070       2.340853188759
       212    1       45.950730191298      10.512140527043       0.000000000000
       213    2       40.544761695000       8.600842609070       0.000000000000
       214    2       41.896254021798      10.512140527043       2.340853188759
       215    2       47.302221707202       9.556492227454       2.340853188759
       216    1       43.247745537702       9.556492227454       0.000000000000
       217    1       52.708190203500       8.600842609070       2.340853188759
       218    2       54.059682530298      10.512140527043       0.000000000000
       219    2       48.653714034000       8.600842609070       0.000000000000
       220    1       50.005206360798      10.512140527043       2.340853188759
       221    1       55.411174046202       9.556492227454       2.340853188759
       222    1       51.356697876702       9.556492227454       0.000000000000
       223    1       60.817142542500       8.600842609070       2.340853188759
       224    1       62.168634869298      10.512140527043       0.000000000000
       225    1       56.762666373000       8.600842609070       0.000000000000
       226    1       58.114158699798      10.512140527043       2.340853188759
       227    1       63.520126385202       9.556492227454       2.340853188759
       228    1       59.465650215702       9.556492227454       0.000000000000
       229    2       68.926094881500       8.600842609070       2.340853188759
       230    2       70.277587208298      10.512140527043       0.000000000000
       231    1       64.871618712000       8.600842609070       0.000000000000
       232    2       66.223111038798      10.512140527043       2.340853188759
       233    2       71.629078724202       9.556492227454       2.340853188759
       234    2       67.574602554702       9.556492227454       0.000000000000
       235    1       77.035047220500       8.600842609070       2.340853188759
       236    1       78.386539547298      10.512140527043       0.000000000000
       237    1       72.980571051000       8.600842609070       0.000000000000
       238    1       74.332063377798      10.512140527043       2.340853188759
       239    2       79.738031063202       9.556492227454       2.340853188759
       240    2       75.683554893702       9.556492227454       0.000000000000
       241    1        4.054476169500      11.467790145427       2.340853188759
       242    2        5.405968496298      13.379089382195       0.000000000000
       243    1        0.000000000000      11.467790145427       0.000000000000
       244    1        1.351492326798      13.379089382195       2.340853188759
       245    1        6.757460012202      12.423439763811       2.340853188759
       246    2        2.702983842702      12.423439763811       0.000000000000
       247    1       12.163428508500      11.467790145427       2.340853188759
       248    2       13.514920835298      13.379089382195       0.000000000000
       249    2        8.108952339000      11.467790145427       0.000000000000
       250    2        9.460444665798      13.379089382195       2.340853188759
       251    1       14.866412351202      12.423439763811       2.340853188759
       252    1       10.811936181702      12.423439763811       0.000000000000
       253    2       20.272380847500      11.467790145427       2.340853188759
       254    1       21.623873174298      13.379089382195       0.000000000000
       255    2       16.217904678000      11.467790145427       0.000000000000
       256    2       17.569397004798      13.379089382195       2.340853188759
       257    2       22.975364690202      12.423439763811       2.340853188759
       258    2       18.920888520702      12.423439763811       0.000000000000
       259    2       28.381333186500      11.467790145427       2.340853188759
       260    1       29.732825513298      13.379089382195       0.000000000000
       261    2       24.326857017000      11.467790145427       0.000000000000
       262    2       25.678349343798      13.379089382195       2.340853188759
       263    1       31.084317029202      12.423439763811       2.340853188759
       264    1       27.029840859702      12.423439763811       0.000000000000
       265    1       36.490285525500      11.467790145427       2.340853188759
       266    1       37.841777852298      13.379089382195       0.000000000000
       267    2       32.435809356000      11.467790145427       0.000000000000
       268    1       33.787301682798      13.379089382195       2.340853188759
       269    1       39.193269368202      12.423439763811       2.340853188759
       270    1       35.138793198702      12.423439763811       0.000000000000
       271    1       44.599237864500      11.467790145427       2.340853188759
       272    1       45.950730191298      13.379089382195       0.000000000000
       273    1       40.544761695000      11.467790145427       0.000000000000
       274    1       41.896254021798      13.379089382195       2.340853188759
       275    1       47.302221707202      12.423439763811       2.340853188759
       276    1       43.247745537702      12.423439763811       0.000000000000
       277    1       52.708190203500      11.467790145427       2.340853188759
       278    1       54.059682530298      13.379089382195       0.000000000000
       279    1       48.653714034000      11.467790145427       0.000000000000
       280    1       50.005206360798      13.379089382195       2.340853188759
       281    1       55.411174046202      12.423439763811       2.340853188759
       282    1       51.356697876702      12.423439763811       0.000000000000
       283    1       60.817142542500      11.467790145427       2.340853188759
       284    1       62.168634869298      13.379089382195       0.000000000000
       285    2       56.762666373000      11.467790145427       0.000000000000
       286    2       58.114158699798      13.379089382195       2.340853188759
       287    2       63.520126385202      12.423439763811       2.340853188759
       288    1       59.465650215702      12.423439763811       0.000000000000
       289    1       68.926094881500      11.467790145427       2.340853188759
       290    2       70.277587208298      13.379089382195       0.000000000000
       291    2       64.871618712000      11.467790145427       0.000000000000
       292    1       66.223111038798      13.379089382195       2.340853188759
       293    1       71.629078724202      12.423439763811       2.340853188759
       294    2       67.574602554702      12.423439763811       0.000000000000
       295    2       77.035047220500      11.467790145427       2.340853188759
       296    1       78.386539547298      13.379089382195       0.000000000000
       297    2       72.980571051000      11.467790145427       0.000000000000
       298    2       74.332063377798      13.379089382195       2.340853188759
       299    2       79.738031063202      12.423439763811       2.340853188759
       300    2       75.683554893702      12.423439763811       0.000000000000
       301    2        4.054476169500      14.334737681784       2.340853188759
       302    1        5.405968496298      16.246036918552       0.000000000000
       303    2        0.000000000000      14.334737681784       0.000000000000
       304    2        1.351492326798      16.246036918552       2.340853188759
       305    2        6.757460012202      15.290387300168       2.340853188759
       306    1        2.702983842702      15.290387300168       0.000000000000
       307    1       12.163428508500      14.334737681784       2.340853188759
       308    2       13.514920835298      16.246036918552       0.000000000000
       309    1        8.108952339000      14.334737681784       0.000000000000
       310    2        9.460444665798      16.246036918552       2.340853188759
       311    2       14.866412351202      15.290387300168       2.340853188759
       312    2       10.811936181702      15.290387300168       0.000000000000
       313    1       20.272380847500      14.334737681784       2.340853188759
       314    2       21.623873174298      16.246036918552       0.000000000000
       315    1       16.217904678000      14.334737681784       0.000000000000
       316    2       17.569397004798      16.246036918552       2.340853188759
       317    1       22.975364690202      15.290387300168       2.340853188759
       318    1       18.920888520702      15.290387300168       0.000000000000
       319    1       28.381333186500      14.334737681784       2.340853188759
       320    1       29.732825513298      16.246036918552       0.000000000000
       321    1       24.326857017000      14.334737681784       0.000000000000
       322    1       25.678349343798      16.246036918552       2.340853188759
       323    1       31.084317029202      15.290387300168       2.340853188759
       324    1       27.029840859702      15.290387300168       0.000000000000
       325    1       36.490285525500      14.334737681784       2.340853188759
       326    1       37.841777852298      16.246036918552       0.000000000000
       327    1       32.435809356000      14.334737681784       0.000000000000
       328    1       33.787301682798      16.246036918552       2.340853188759
       329    2       39.193269368202      15.290387300168       2.340853188759
       330    2       35.138793198702      15.290387300168       0.000000000000
       331    2       44.599237864500      14.334737681784       2.340853188759
       332    1       45.950730191298      16.246036918552       0.000000000000
       333    1       40.544761695000      14.334737681784       0.000000000000
       334    2       41.896254021798      16.246036918552       2.340853188759
       335    2       47.302221707202      15.290387300168       2.340853188759
       336    1       43.247745537702      15.290387300168       0.000000000000
       337    2       52.708190203500      14.334737681784       2.340853188759
       338    2       54.059682530298      16.246036918552       0.000000000000
       339    2       48.653714034000      14.334737681784       0.000000000000
       340    2       50.005206360798      16.246036918552       2.340853188759
       341    2       55.411174046202      15.290387300168       2.340853188759
       342    2       51.356697876702      15.290387300168       0.000000000000
       343    2       60.817142542500      14.334737681784       2.340853188759
       344    1       62.168634869298      16.246036918552       0.000000000000
       345    2       56.762666373000      14.334737681784       0.000000000000
       346    1       58.114158699798      16.246036918552       2.340853188759
       347    2       63.520126385202      15.290387300168       2.340853188759
       348    1       59.465650215702      15.290387300168       0.000000000000
       349    1       68.926094881500      14.334737681784       2.340853188759
       350    1       70.277587208298      16.246036918552       0.000000000000
       351    2       64.871618712000      14.334737681784       0.000000000000
       352    2       66.223111038798      16.246036918552       2.340853188759
       353    2       71.629078724202      15.290387300168       2.340853188759
       354    2       67.574602554702      15.290387300168       0.000000000000
       355    1       77.035047220500      14.334737681784       2.340853188759
       356    1       78.386539547298      16.246036918552       0.000000000000
       357    1       72.980571051000      14.334737681784       0.000000000000
       358    2       74.332063377798      16.246036918552       2.340853188759
       359    2       79.738031063202      15.290387300168       2.340853188759
       360    2       75.683554893702      15.290387300168       0.000000000000
       361    2        4.054476169500      17.201685218140       2.340853188759
       362    2        5.405968496298      19.112984454909       0.000000000000
       363    1        0.000000000000      17.201685218140       0.000000000000
       364    2        1.351492326798      19.112984454909       2.340853188759
       365    1        6.757460012202      18.157334836524       2.340853188759
       366    2        2.702983842702      18.157334836524       0.000000000000
       367    2       12.163428508500      17.201685218140       2.340853188759
       368    1       13.514920835298      19.112984454909       0.000000000000
       369    1        8.108952339000      17.201685218140       0.000000000000
       370    2        9.460444665798      19.112984454909       2.340853188759