LAMMPS data file via write_data, version 2 Aug 2023, timestep = 1616, units = metal

38640 atoms
2 atom types

-1.1067432941881907 79.98031301418818 xlo xhi
-1.804543573219436 130.0802263832191 ylo yhi
-0.895276601564044 64.64802399156432 zlo zhi

Masses

1 92.90600000000001
2 180.948

Atoms # atomic

4 1 0.19642736047349724 0.09594609415629402 1.3853096234918094 0 0 0
19569 2 6.960068899438494 9.640415298942356 31.865455793350332 0 0 0
2 1 4.314575185107271 0.11067949521533268 -0.8119298432993387 0 0 0
5 1 5.586008906229653 -0.8317697862921164 1.4117269303867142 0 0 0
61 2 2.903095869078097 1.0466336585651808 1.4586734169348372 0 0 0
10 2 8.285638442203954 0.09649579575302308 1.4362190900129213 0 0 0
67 2 11.035229239571363 1.0547829727369578 1.4504923489434567 0 0 0
16810 1 8.30246943000231 11.595078135974399 29.55505934563297 0 0 0
11 2 13.71990596624939 -0.8715736067463504 1.490653382180653 0 0 0
75 1 15.117689859272561 1.1198460643310506 -0.8509885909588331 0 0 0
16870 1 8.32002940732631 14.470105354482532 29.520798123476702 0 0 0
16861 1 2.92794181330928 12.539797081355514 29.597519261585933 0 0 0
16 1 16.4590810983801 0.10530300569497407 1.432018943852654 0 0 0
73 2 19.151046102016846 1.091495207394563 1.410244862593799 0 0 0
18 1 17.791278192674326 -0.9094316907236043 -0.8891565928634685 0 0 0
64 2 0.2346824724299225 2.9473933675144974 1.4798878923579184 0 0 0
66 2 1.5881952890445292 2.0529263452697517 -0.871254936642491 0 0 0
19638 2 17.793494767634854 13.48605073031758 31.84965264535134 0 0 0
121 2 2.9712703029101033 3.90329236621199 1.4656904165944045 0 0 0
62 2 4.324253793413213 2.947735916104817 -0.8924363272181999 0 0 0
65 2 5.668624197855505 2.018620296207732 1.4520872538965932 0 0 0
70 2 8.390344614436081 2.9968458547191728 1.4308545575986837 0 0 0
129 2 7.020767745514576 3.9716489133422885 -0.887409299083388 0 0 0
127 1 11.083882843770345 3.9732901178486633 1.5039218535404675 0 0 0
68 2 12.37088629506579 3.0221239836996796 -0.8426692909285521 0 0 0
16865 2 5.61292610179594 13.486882776945352 29.549139257897025 0 0 0
135 1 15.094348749333735 3.8981168781633526 -0.8909772291540045 0 0 0
71 2 13.764917091163873 2.0222829264881965 1.4818501762911955 0 0 0
76 1 16.483564474957404 3.007920672408877 1.432273131148667 0 0 0
124 1 0.24734465658816518 5.827671681331818 1.4548848897628026 0 0 0
126 1 1.645626931189177 4.882998344226902 -0.8916079561315918 0 0 0
181 2 2.9774877218069027 6.777917250125999 1.441036452154016 0 0 0
125 2 5.655681675672944 4.884502169193317 1.450715515630449 0 0 0
185 2 5.658940603366636 7.747835716693182 1.439409220059988 0 0 0
130 2 8.345825549850614 5.8894888467586375 1.4290326865363379 0 0 0
189 1 7.016168713370673 6.806630663407561 -0.8883583032654374 0 0 0
187 1 11.060466674844925 6.79370668720665 1.4506753716941445 0 0 0
131 2 13.768490426825911 4.9253101818052025 1.4304823308245733 0 0 0
191 1 13.734688500290853 7.77110832184137 1.4350037229460206 0 0 0
198 1 17.813284062060283 7.728055297772821 -0.8787405380207857 0 0 0
136 1 16.497067087880986 5.81487680426459 1.4549572362309284 0 0 0
184 1 0.258413332854864 8.59311130897516 1.455950261745159 0 0 0
241 2 2.9310402729871683 9.651182109296686 1.4429248949873212 0 0 0
245 2 5.6418069906302195 10.65253072559878 1.4341755841877102 0 0 0
182 1 4.31480957121412 8.672770391396762 -0.8926555118155202 0 0 0
190 1 8.324925668838619 8.764455799521402 1.4834014231923098 0 0 0
249 1 7.004552841094291 9.671187500960066 -0.856105555091946 0 0 0
247 1 11.013358575741552 9.683325884024995 1.4410599294543998 0 0 0
251 1 13.747042225140804 10.601442944875803 1.4490746538447248 0 0 0
255 1 15.112030414491912 9.689992996344655 -0.8657499727879542 0 0 0
253 1 19.134145513977092 9.659730142614618 1.470485819798183 0 0 0
2769 1 7.019023603941977 -1.7975137451264718 3.7796649545723664 0 0 0
196 2 16.44879109887787 8.685217206731815 1.458606617828406 0 0 0
244 1 0.22718550634651913 11.544854834451469 1.4618119827985627 0 0 0
304 1 0.2269340205285674 14.430775202791796 1.4835153531230465 0 0 0
306 2 1.5374237962946302 13.503435733131708 -0.8657662157988986 0 0 0
301 1 2.965094120263383 12.568086785235572 1.4307059937393394 0 0 0
305 1 5.654974537152654 13.47988851650022 1.4522757563758397 0 0 0
250 2 8.37324652342023 11.634637563458018 1.4526215411717214 0 0 0
310 1 8.309349296550987 14.501359942578846 1.4661661202454737 0 0 0
307 1 11.07836317281929 12.4889594851891 1.469544371293858 0 0 0
312 1 9.687360936153349 13.498074843127696 -0.8428335226455842 0 0 0
308 2 12.368382780128705 14.438572363892998 -0.8636234415822444 0 0 0
315 1 15.09771205476991 12.59650909150773 -0.8910047672138388 0 0 0
311 1 13.758926040547882 13.414945940472489 1.4241399551613938 0 0 0
318 2 17.824002569195223 13.490015393571873 -0.8882795219013548 0 0 0
256 2 16.46555986577616 11.597425433891807 1.4091070770514145 0 0 0
316 2 16.41714507339113 14.451136838714598 1.4633872743698013 0 0 0
2766 1 1.605871500913525 -0.8610722005570061 3.810236536770706 0 0 0
2823 2 -1.0591247370812487 1.0467287923106436 3.7821210184174765 0 0 0
258 1 17.853652840186115 10.602337839171366 -0.8914005048341344 0 0 0
2762 1 4.295330511589184 0.1015092293401502 3.776605900237217 0 0 0
11055 1 15.173008178397952 -1.798114560190105 17.807593754095727 0 0 0
2829 1 7.017916961813559 1.0827600177621544 3.80714553369924 0 0 0
2772 2 9.746333507914954 -0.8346093854441452 3.765729771460026 0 0 0
2768 1 12.405445753572433 0.17437865071688777 3.8507186111846314 0 0 0
2835 1 15.112711831375101 1.02940186478236 3.799723287879594 0 0 0
2778 1 17.806391396491826 -0.820938278127763 3.7489932159096724 0 0 0
2826 1 1.6150814931247746 2.0793602998256384 3.8104713613321954 0 0 0
2822 1 4.349967904716543 2.9770092478789394 3.801681752739828 0 0 0
2889 1 6.992269219635435 3.906295888057796 3.7849259165555833 0 0 0
2832 1 9.65903800180235 1.992465073566482 3.790091026968898 0 0 0
2828 1 12.380843915012724 3.033357781092669 3.788081901264821 0 0 0
2895 2 15.11585653160892 3.863932615559695 3.7646327692270725 0 0 0
2838 2 17.79222877467638 2.040759789616615 3.8249116753406813 0 0 0
2886 1 1.5398620184552378 4.8847818931874984 3.7497512320775117 0 0 0
2946 2 1.6111995529154755 7.759765586538169 3.7857756179749247 0 0 0
2882 2 4.252070673964341 5.831711453979337 3.7918686099806145 0 0 0
2949 2 6.975582739260009 6.766599993967219 3.800286495616814 0 0 0
2892 2 9.668883041709002 4.872110235643337 3.7825192158576697 0 0 0
2952 2 9.688379569276227 7.722651137942238 3.762617767039894 0 0 0
2888 1 12.403520970679645 5.8379115064082665 3.805578044649146 0 0 0
2955 2 15.122572841531428 6.781824660785508 3.7559313799115897 0 0 0
2898 2 17.80574081145794 4.91926795904121 3.7938454722776003 0 0 0
2958 2 17.862341186702054 7.7605635811236295 3.790349494967267 0 0 0
3003 2 -1.0773461185171873 9.618316791145315 3.773449934150261 0 0 0
3006 1 1.5850032370123555 10.611571302335692 3.775728249915862 0 0 0
2942 2 4.329214701229246 8.710715191843061 3.7687046083225013 0 0 0
3009 1 7.002762067089799 9.637376603309924 3.718691906270557 0 0 0
3012 2 9.687922876550035 10.635818105181455 3.826794899962681 0 0 0
2948 1 12.386001784967789 8.704454820777032 3.782845965562554 0 0 0
3015 1 15.105950726857445 9.651458328097972 3.759648920101101 0 0 0
3018 2 17.787046906202168 10.636098045943866 3.790345092565453 0 0 0
3066 2 1.580928428058874 13.445522731507078 3.8133988626828272 0 0 0
3002 2 4.244584807597859 11.592723069833841 3.7765889935382813 0 0 0
3062 2 4.311887919905483 14.462226440227196 3.787130983976279 0 0 0
3069 2 6.975664299451025 12.522075811219363 3.7905404967008436 0 0 0
3072 2 9.707855129996812 13.509009116775415 3.759240131688517 0 0 0
3008 1 12.407663206614119 11.57985428677502 3.8049263164939786 0 0 0
3068 2 12.46021962236233 14.4412283954987 3.7916252246303466 0 0 0
3075 2 15.133002612970706 12.540457868282958 3.788049145373269 0 0 0
3078 2 17.856994553727144 13.515979504304886 3.78659431093286 0 0 0
2764 1 0.21779549675882182 0.07810930435157158 6.142182140164432 0 0 0
5526 2 1.59148857864402 -0.8513994851086097 8.507282939912013 0 0 0
16816 2 16.4447974240216 11.569705084373213 29.520850667458365 0 0 0
2821 1 2.8935571803074667 1.0471518582433728 6.142531884647599 0 0 0
5522 2 4.340757049780599 0.09135404412813486 8.421972452766958 0 0 0
2833 1 19.162064917559764 1.0532525387093203 6.133324164419331 0 0 0
2765 1 5.726435297944668 -0.8222849856610539 6.111764878495016 0 0 0
2770 1 8.373237049196874 0.08984601788622966 6.125819888048582 0 0 0
5589 2 7.033258457437889 1.0380044383919518 8.47974998664099 0 0 0
2827 1 11.05570583362881 1.0756736257520847 6.133095379449413 0 0 0
5532 1 9.717798290922541 -0.8511387749949507 8.497910276552307 0 0 0
5528 1 12.400003007332456 0.11726306294833674 8.480440046293912 0 0 0
2771 2 13.751326084482796 -0.8560993993173883 6.141439947060194 0 0 0
5595 1 15.098247962676743 1.0735707846577962 8.43774640606743 0 0 0
2776 1 16.450995756814162 0.10666398405217274 6.14114847881143 0 0 0
5538 1 17.821348515393776 -0.7955921850155628 8.443833049642464 0 0 0
2824 2 0.20616280691182212 2.944792412256082 6.137206844878091 0 0 0
5586 1 1.6004667484096828 2.0023286631904704 8.465914888173794 0 0 0
16876 1 16.414254287314588 14.44142486539452 29.56448885952182 0 0 0
2825 2 5.610042202621236 2.0104064720460526 6.154773844360124 0 0 0
2881 2 2.9609604786326535 3.9380389029557414 6.120149884475164 0 0 0
5582 1 4.306586772232594 2.94627197668481 8.454444049703206 0 0 0
2830 1 8.31041978007702 2.9729497034356553 6.168464814989025 0 0 0
5649 2 6.96745581993962 3.954483086686158 8.497921991870268 0 0 0
2887 2 11.012046058528897 3.9047278269741614 6.133000219272455 0 0 0
5592 1 9.709653114315037 2.027956908603384 8.496598389771775 0 0 0
2831 1 13.749271171028896 2.026591612312683 6.129216443715047 0 0 0
5588 1 12.418943203437129 3.042465637848577 8.482647148813594 0 0 0
5655 1 15.10366337110008 3.9564700026078214 8.471053716509312 0 0 0
2836 1 16.45655432531371 3.034042182481963 6.1352181762694515 0 0 0
5598 1 17.800181415272736 2.0415588830102473 8.44901910486642 0 0 0
2884 1 0.27317875816548914 5.805318435745576 6.113977712608757 0 0 0
5646 1 1.563562128022208 4.845047044124944 8.470902492191458 0 0 0
5706 2 1.6073775156335364 7.712556064384008 8.454744905831774 0 0 0
2941 1 2.969524824438883 6.804049757621361 6.119729917407873 0 0 0
5642 2 4.275818115911872 5.832750737565033 8.474611040233093 0 0 0
2885 2 5.653111516689854 4.885075006653488 6.111181390834438 0 0 0
2945 2 5.6455086184490675 7.710326951715076 6.141435750908842 0 0 0
2890 2 8.339227246739753 5.833146688391453 6.139250704653951 0 0 0
5709 1 7.017893161522216 6.792630596453111 8.468377171583166 0 0 0
2947 2 11.02110379019846 6.7717412222410704 6.14909953234006 0 0 0
5652 2 9.734690064238778 4.922791791453052 8.4819081928149 0 0 0
5712 1 9.64825220638607 7.757367949109259 8.482335946217864 0 0 0
2891 2 13.749494236592177 4.897105808283154 6.112171530893507 0 0 0
2951 2 13.741762020925638 7.768825729969654 6.124086439841 0 0 0
5648 1 12.427141983879242 5.788905243849457 8.460708971306472 0 0 0
5715 1 15.118217898432684 6.793167251724265 8.437622129429254 0 0 0
2896 1 16.442405322845413 5.84086989834958 6.10089315197053 0 0 0
5658 1 17.818445118695465 4.908489893323633 8.459521073969757 0 0 0
5718 1 17.81344151024446 7.807111780746812 8.476330806152518 0 0 0
2944 1 0.22365293226155272 8.661978891552176 6.133436929715377 0 0 0
5763 2 -1.0776836135347827 9.670768015053273 8.447720407250863 0 0 0
5766 2 1.6039601108777135 10.612653637133414 8.496064634070365 0 0 0
3001 1 2.9632024595018525 9.669261961130093 6.124594836230375 0 0 0
5702 1 4.279930931494892 8.730493768651874 8.464236486378535 0 0 0
3005 2 5.6864523298136325 10.602112831207316 6.084788215356997 0 0 0
2950 2 8.36287664782002 8.73291268760347 6.103628265247858 0 0 0
5769 1 6.927225715473042 9.602679934301369 8.43649616547202 0 0 0
3007 1 11.086617935213104 9.62873108266518 6.101349795687002 0 0 0
5772 2 9.64780754909419 10.626865675323653 8.430825533619622 0 0 0
5708 1 12.388694819008787 8.694196716966326 8.455695706412156 0 0 0
3011 1 13.768954194404522 10.600868398856292 6.123678603320621 0 0 0
5775 1 15.09331118276562 9.648336193377414 8.440395246554822 0 0 0
2956 2 16.478130022326837 8.69999225698027 6.090096760517417 0 0 0
5778 1 17.81035573447119 10.604549051067147 8.463535463572772 0 0 0
3004 2 0.2593950894968778 11.555971426360237 6.129175720704843 0 0 0
3064 1 0.20133403060238042 14.42187735382905 6.132623830718942 0 0 0
5826 2 1.586390692177669 13.475527061877694 8.4847459813187 0 0 0
3061 1 2.9550041552031874 12.533927566215446 6.148438027520859 0 0 0
3065 2 5.625320428492123 13.455916149994753 6.143559818533293 0 0 0
5762 2 4.3045067971134525 11.60411587151708 8.445611743065712 0 0 0
5822 2 4.304180014776557 14.450798185991443 8.469436335388647 0 0 0
3010 1 8.328094883761912 11.616639024063886 6.087774833075436 0 0 0
3070 2 8.336284989750677 14.409213881702659 6.137905791787964 0 0 0
5829 2 7.022271580416467 12.489562185328385 8.453019685626684 0 0 0
3067 2 11.007182971152266 12.51366617093307 6.131154688807086 0 0 0
5832 1 9.714665317719376 13.517930879501959 8.499295601201263 0 0 0
5768 1 12.392065369428055 11.562571208200632 8.47818569261941 0 0 0
3071 2 13.72520307717344 13.462588488013221 6.154297957723474 0 0 0
5828 1 12.442197511489333 14.439524785470802 8.494030937036593 0 0 0
5835 2 15.121864713584685 12.510695992298396 8.51205903491061 0 0 0
11173 1 19.14600952562243 3.940163628191825 20.174404075523462 0 0 0
3016 1 16.442242925623518 11.5746396124675 6.134645283962316 0 0 0
3076 2 16.443379841563317 14.406256666094094 6.168161545210711 0 0 0
5838 1 17.814738447289454 13.553793791922606 8.489968591310737 0 0 0
5524 2 0.22019993350831923 0.09446346491713956 10.851074860611824 0 0 0
5581 2 2.9678542215710944 1.0272069395039045 10.779177929037605 0 0 0
5525 2 5.6667727678137645 -0.8516643696413053 10.784221891337403 0 0 0
5530 2 8.379574315758742 0.10520213101818233 10.835650949746151 0 0 0
5587 1 11.094279963272948 1.0324872935641347 10.921971862135758 0 0 0
5531 1 13.70386163918447 -0.8232098108236876 10.74295285135024 0 0 0
5536 2 16.426867467478264 0.12584813072245762 10.797563692228097 0 0 0
16804 1 0.23726720220432504 11.564619407843537 29.55523713262548 0 0 0
5584 1 0.30466395281701425 2.9407837830835035 10.813099923786671 0 0 0
5641 2 2.9974939467792145 3.940685278652965 10.783269526087857 0 0 0
5585 2 5.6627316708939635 2.022069578397657 10.810884414413458 0 0 0
5590 1 8.379298050182962 2.955228239032243 10.717602786325646 0 0 0
5647 2 11.045513395525392 3.913569755501721 10.860900145013058 0 0 0
5591 2 13.764586295914796 2.0241531066257488 10.795484693577473 0 0 0
5596 1 16.43595684248188 3.042175489529523 10.823536418515465 0 0 0
5653 2 19.13163532304627 3.9039780453829063 10.808162107355393 0 0 0
5644 1 0.27673802942125664 5.82025117753521 10.799945482966809 0 0 0
5701 1 2.9259322235470355 6.812153037031756 10.824552836201077 0 0 0
5645 1 5.65130656906385 4.922117433773109 10.873968265216169 0 0 0
5705 1 5.648406544460078 7.765395179689431 10.838895964811483 0 0 0
5650 2 8.358891753777316 5.815078494343039 10.821618934310456 0 0 0
5707 2 11.052560902248054 6.800927840259246 10.792539458656925 0 0 0
5651 2 13.746970660350863 4.9222198297000155 10.855257003442084 0 0 0
5711 1 13.701421731388766 7.762041461928728 10.78604508920491 0 0 0
5656 1 16.47695360215729 5.848251500066084 10.784130678209586 0 0 0
5704 2 0.23978973840464604 8.708494353011297 10.782959117117102 0 0 0
5761 1 2.9668017430242943 9.650850409424358 10.817553691203683 0 0 0
5765 2 5.684477757358508 10.61809694698228 10.768623862960807 0 0 0
5710 2 8.34594264242617 8.737595343218018 10.814871407782904 0 0 0
5767 2 11.064545400481327 9.691344329955934 10.814174005903373 0 0 0
5771 2 13.81282884093527 10.637444574696795 10.813706279038591 0 0 0
5716 2 16.399625482316257 8.707264022091376 10.811569945977878 0 0 0
5764 2 0.24168565251256288 11.571308415894988 10.792723679158378 0 0 0
5824 1 0.22147631961034234 14.411345811298549 10.857802910731206 0 0 0
5821 2 2.973425028686089 12.50458658480726 10.80641816771897 0 0 0
5825 2 5.64440870852303 13.491794627011204 10.78798456320667 0 0 0
5770 1 8.380842376289491 11.60482554822175 10.849869802426426 0 0 0
5830 1 8.335551140808336 14.440431518608793 10.835321769722698 0 0 0
5827 1 11.06068421916433 12.57073897223579 10.811035310117555 0 0 0
5831 1 13.742734839247126 13.491564430832634 10.843861866858532 0 0 0
5776 1 16.534915175735332 11.578820283043989 10.848737925868894 0 0 0
5836 1 16.48486714153744 14.450596664694107 10.817396772060537 0 0 0
8283 2 -1.0808721535923111 -1.757794556740779 13.195748747967647 0 0 0
8286 1 1.644684326536847 -0.862917577998787 13.172841742443081 0 0 0
8284 2 0.19811577118410556 0.13627945630693727 15.482758977769906 0 0 0
8282 2 4.326310938375992 0.11920460887338688 13.132656733278512 0 0 0
8289 1 6.935518767966397 -1.7727021609869773 13.142095598363014 0 0 0
8349 1 7.004270663625915 1.0228773514976048 13.170422648419786 0 0 0
8292 2 9.681982141229613 -0.8781441454000586 13.227987218775652 0 0 0
8288 1 12.382423644207934 0.11120657295617652 13.147743419535274 0 0 0
8295 2 15.080135781419795 -1.7660853202761386 13.123782745854337 0 0 0
8355 1 15.129088326756593 1.1235482401574999 13.147369216869878 0 0 0
8298 2 17.786835470734555 -0.8569854213430856 13.144789012335247 0 0 0
8296 2 16.452801832734185 0.11752596293913305 15.454209956460351 0 0 0
8346 1 1.6069955645339729 2.016749269062122 13.15964925665335 0 0 0
8403 1 -1.085071423633142 3.9500004399748163 13.14389827018067 0 0 0
8342 1 4.243387198500574 2.9406101434891903 13.15395100100727 0 0 0
8409 1 6.992141052136457 3.9299038259221852 13.165836929431277 0 0 0
8352 2 9.673474610901444 2.0482445428591 13.145090590769813 0 0 0
8348 2 12.41058034210891 2.9604810607154737 13.174944335037 0 0 0
8415 1 15.093808432884993 3.9146419397408034 13.178004154089729 0 0 0
8358 2 17.830439217288806 2.018560665918618 13.110377149507256 0 0 0
8406 1 1.6129078185083752 4.877104530559959 13.141519520927162 0 0 0
8466 2 1.5789422183950217 7.745150401143339 13.152515522591244 0 0 0
8404 1 0.25242293416925043 5.862089024653344 15.46961405045376 0 0 0
16871 2 13.721310647500893 13.446610181090602 29.502762588445325 0 0 0
8402 1 4.305413886539637 5.851914510982745 13.16932126608311 0 0 0
8469 2 6.993117037625809 6.794180090068368 13.158607574067553 0 0 0
8465 1 5.647390036296085 7.770463030006067 15.488439285704414 0 0 0
8412 1 9.68798364379206 4.890119889258741 13.167186384777537 0 0 0
8472 2 9.70348790818071 7.746913079413698 13.132594560464408 0 0 0
8408 2 12.34233533691433 5.840815441393582 13.185619854082685 0 0 0
8475 2 15.112106017603255 6.83228495000864 13.118466588520528 0 0 0
8418 2 17.76172622035512 4.951015758848708 13.196498669998261 0 0 0
8478 1 17.827513838467613 7.850173547138153 13.127998437567378 0 0 0
8473 2 19.099717369553208 6.794042244825376 15.470941444817798 0 0 0
8523 2 -1.1021622301118426 9.657797420836932 13.131785479533617 0 0 0
8526 2 1.5759518180175083 10.627879437642562 13.147481349933733 0 0 0
8462 1 4.2721591249308855 8.711701821595096 13.119133901144282 0 0 0
8521 1 2.968327246530129 9.656297406433183 15.474887981033277 0 0 0
8529 2 6.982837253392328 9.676209022155467 13.18009289710959 0 0 0
8532 2 9.707024027923712 10.613670614956124 13.145249372716165 0 0 0
8468 2 12.424171815389164 8.733885895327086 13.136169806956703 0 0 0
8535 1 15.114833741307878 9.704656592574842 13.145336325273723 0 0 0
8531 2 13.77564504117881 10.569152097592978 15.479153714505625 0 0 0
8538 1 17.835981310589094 10.631312936325163 13.16044973933013 0 0 0
8476 2 16.424359065521088 8.703557627561182 15.474766635707553 0 0 0
8586 1 1.6078817639890457 13.472459370755457 13.084173778745319 0 0 0
8584 2 0.29038082095012024 14.442489143051596 15.439299258812287 0 0 0
8522 2 4.349616459572218 11.563156706153118 13.1500625967242 0 0 0
8582 2 4.277733606883945 14.450759746253373 13.120483512915694 0 0 0
8581 1 2.9627998778807525 12.530592971394077 15.48075540629307 0 0 0
8585 1 5.638012195710155 13.46767876473604 15.482865946413273 0 0 0
8589 1 7.01914013322711 12.53975667391743 13.114792755638552 0 0 0
8590 2 8.312407331670814 14.408980592836722 15.480201253105873 0 0 0
8592 1 9.712517472843619 13.488307714719856 13.164540621162308 0 0 0
8528 2 12.400527444545569 11.612746727757658 13.149266238175809 0 0 0
8587 1 11.006119303411081 12.477720404202156 15.474430649195556 0 0 0
8588 1 12.44156924574367 14.484464981798999 13.14887496965972 0 0 0
8595 2 15.113233507118613 12.51852483790314 13.18017035932611 0 0 0
8598 2 17.8382245862901 13.507528707452819 13.163346668632432 0 0 0
11046 2 1.5851225239982227 -0.8450370984950568 17.79504591301535 0 0 0
19632 2 9.733019819917685 13.518350862632312 31.861994603707945 0 0 0
8281 1 2.968870317113393 -1.789920936952917 15.479134035399252 0 0 0
8341 2 2.952345590277168 1.0344021517444286 15.509040210949028 0 0 0
11042 2 4.277532800328768 0.10611089871791358 17.872010415802333 0 0 0
11049 1 6.996625486548811 -1.7925175557186885 17.9018957905598 0 0 0
8285 2 5.664306415073484 -0.8551666247788986 15.524699130967791 0 0 0
8290 1 8.314618923136056 0.17591984504364222 15.499652353009452 0 0 0
11109 1 6.978126885256833 1.0604317571766817 17.864655767064345 0 0 0
8347 2 11.039977829922858 1.0369505223972109 15.514332760922098 0 0 0
11052 2 9.703460126452592 -0.8093557153379397 17.79993983931925 0 0 0
19338 2 17.791729763168956 -0.8444365579109071 31.870026324328432 0 0 0
8291 1 13.767978040789563 -0.8915423694068874 15.53458770607673 0 0 0
11048 1 12.450589585522684 0.02158783099045537 17.79985374008989 0 0 0
11115 2 15.122325689188202 1.0852399453670016 17.865966286971602 0 0 0
11058 1 17.807985170212927 -0.8684180729468439 17.797147506881796 0 0 0
8344 1 0.25695662533711144 2.998408313567631 15.534010885179635 0 0 0
11106 2 1.5956189805469865 2.0224619509484927 17.845240158610974 0 0 0
8345 1 5.626670461747444 2.0190169109783405 15.514486214280364 0 0 0
8401 2 2.942225316595575 3.930569137887618 15.504412154121136 0 0 0
11102 1 4.271465017874888 2.982926189862 17.858714817244344 0 0 0
8350 1 8.338213628968164 2.9807706246444265 15.513728217564008 0 0 0
11169 1 6.993398584818667 3.9336547893870764 17.824948035427237 0 0 0
8407 2 11.062522282256316 3.935293590210213 15.501482920808439 0 0 0
11112 1 9.659143685322425 2.0528094420754983 17.8421324051569 0 0 0
8351 2 13.766520752598922 1.982592887450843 15.498439668194177 0 0 0
11108 2 12.414611295387791 2.894950285804749 17.88700054206859 0 0 0
11175 1 15.081539470907806 3.965881251101903 17.8158451770006 0 0 0
8356 2 16.48724100093166 3.0085334930900958 15.523188242794724 0 0 0
11118 1 17.854497271110574 1.99443475305564 17.810486416512553 0 0 0
11166 2 1.5797057621249293 4.922633963571479 17.832537863814274 0 0 0
11223 1 -1.0706968007166582 6.84189655309298 17.831272949685225 0 0 0
11226 1 1.5859789184227144 7.777241206066208 17.84429183751819 0 0 0
8405 1 5.6281378128884985 4.873016970730126 15.49789577936199 0 0 0
8461 1 2.927058565758269 6.8036537300902475 15.503698790972036 0 0 0
11162 1 4.268985668669917 5.866185014949258 17.873402592216088 0 0 0
8410 1 8.331105755880404 5.864374346441158 15.512452206350723 0 0 0
11229 2 6.965705644605281 6.803515073982986 17.85900998893018 0 0 0
8467 1 11.03371785181267 6.847746225995227 15.507335541654022 0 0 0
11172 1 9.70609420010266 4.864792293454737 17.84938255213525 0 0 0
11232 1 9.693772213787291 7.751414731131332 17.849436340474877 0 0 0
11168 2 12.374644034417413 5.824674043237969 17.818363616274333 0 0 0
8411 1 13.756394543481013 4.8365234331652 15.511196774904358 0 0 0
8471 1 13.714389916491353 7.685889289356051 15.480568454075268 0 0 0
11235 1 15.065327238840823 6.784483365300237 17.83601676088002 0 0 0
8416 1 16.377762922388683 5.861475496365011 15.522908654488605 0 0 0
11178 2 17.84050051961765 4.87979883040373 17.784534089688 0 0 0
11238 1 17.765232397432136 7.737435858878373 17.827914905823082 0 0 0
8464 2 0.24334624567273602 8.758449320872113 15.508007537079596 0 0 0
11286 1 1.6094769270192768 10.65316857497401 17.84472553919754 0 0 0
11222 2 4.318447464340291 8.718638159744332 17.82280921634955 0 0 0
8525 1 5.651982532620004 10.616932387942716 15.511251852213345 0 0 0
8470 1 8.350385024240364 8.709834504088061 15.50079888764282 0 0 0
11289 1 7.000067379407275 9.669742618938777 17.8816681420383 0 0 0
8527 1 11.037831841585898 9.700426940841682 15.491211692243173 0 0 0
11292 1 9.700704377097917 10.605078046349611 17.850187144378825 0 0 0
11228 2 12.397080760272763 8.728581250513042 17.794181898432246 0 0 0
11295 1 15.089789097504068 9.675908256603623 17.862561147914032 0 0 0
11298 1 17.79279658022191 10.578378094939692 17.84801860121737 0 0 0
8524 1 0.22598394073057684 11.594577432348654 15.496485561764658 0 0 0
11343 1 -1.0820795717857603 12.546606586720703 17.83096476240356 0 0 0
11346 1 1.6001199078432746 13.512168568032118 17.835161998418087 0 0 0
11282 1 4.301136638560365 11.590465719574256 17.844120633759367 0 0 0
11342 1 4.3339790087378605 14.44671343232361 17.849418785610784 0 0 0
8530 1 8.335633134328484 11.547947450619976 15.51184075501931 0 0 0
11349 1 6.9976897149462705 12.538954066621786 17.827720582380937 0 0 0
11352 2 9.743766483202915 13.477687635391245 17.838878393161696 0 0 0
11288 2 12.386903195911778 11.63272377845916 17.824457614607493 0 0 0
8591 2 13.704264265364415 13.479686166665479 15.52915121255716 0 0 0
11348 1 12.424117557595961 14.472053771372561 17.85915877024037 0 0 0
11355 1 15.12922465993673 12.52121666347254 17.840177870364915 0 0 0
8593 1 19.136433479331906 12.552352534761475 15.481294493934442 0 0 0
8536 1 16.46343407666253 11.612576336144395 15.534326174688166 0 0 0
8596 2 16.440994140043813 14.478824200438526 15.503724514852431 0 0 0
11358 2 17.815095178038643 13.447625936248455 17.858204975866688 0 0 0
11044 2 0.27446798617578105 0.08245234345319719 20.170764937001422 0 0 0
11045 2 5.620991946448453 -0.8503982984758486 20.2367236129129 0 0 0
11101 2 2.977164433458266 1.0514901138090478 20.19995744674741 0 0 0
11050 2 8.372620893147905 0.13100059156370164 20.210079903467562 0 0 0
11107 2 11.099976290499447 1.02767228968752 20.135420889037615 0 0 0
11051 2 13.805451625312262 -0.8318800321605871 20.158935430298232 0 0 0
11056 1 16.527009241613268 0.10532291702211491 20.155567318140243 0 0 0
11104 1 0.25703198505541597 2.9474176590525505 20.149581578394187 0 0 0
11161 2 2.9157198480623907 3.9597801081932498 20.20697841316929 0 0 0
11105 1 5.654660608305191 2.0307911168049566 20.16429544060067 0 0 0
11110 1 8.387163255258212 3.011027415582463 20.153023103602763 0 0 0
11167 1 11.022160586793364 3.9285851719039444 20.17117433185448 0 0 0
11111 1 13.800019803330256 2.006861324037295 20.24052793031621 0 0 0
5583 1 -1.1063728419902372 1.0394027471497058 8.50569258831227 0 0 0
11116 1 16.493757591138472 2.9533454666150476 20.17357100417631 0 0 0
11164 2 0.2212045716511242 5.816008200537962 20.212232428763535 0 0 0
11221 1 2.9474144220891105 6.809695406228679 20.091322140230123 0 0 0
11165 2 5.679870035599474 4.897354983480137 20.127463712672537 0 0 0
11225 2 5.642511858658522 7.7955589352901775 20.255703524283806 0 0 0
11170 1 8.348741306612078 5.87336434921626 20.210779085221528 0 0 0
11227 1 11.06588627307952 6.808411954586151 20.164170778819983 0 0 0
11171 2 13.72744515751275 4.835112746029458 20.177373036304633 0 0 0
11231 2 13.761000002326888 7.729442672501523 20.187012297080706 0 0 0
8463 1 -1.1064371586644879 6.782967539236537 13.128128660600023 0 0 0
11176 2 16.417047903382734 5.799514199040358 20.164618753331027 0 0 0
11224 2 0.23302409863261414 8.742240066358265 20.17786501145598 0 0 0
11281 1 2.931862415403463 9.684037740245357 20.162544610502188 0 0 0
11285 1 5.658456021827419 10.64322693713866 20.16346776736855 0 0 0
11230 1 8.381762226661264 8.714531647473109 20.189980099498705 0 0 0
11287 1 11.069712572081755 9.670505766815245 20.17733021499579 0 0 0
11291 1 13.783489946321556 10.586516340920426 20.10548840946667 0 0 0
11236 2 16.49069844001608 8.660450920199102 20.171496337867246 0 0 0
11284 2 0.21536239018572756 11.591112957127967 20.172669841591013 0 0 0
11344 2 0.2542086569453695 14.441040250724672 20.181476335140385 0 0 0
11341 2 2.9432032938235224 12.557884190563565 20.206174906309514 0 0 0
11345 1 5.6335608328101054 13.52508664182991 20.15154811311113 0 0 0
11290 1 8.345271365896352 11.58308314689603 20.187584405137105 0 0 0
11350 1 8.357495016883707 14.428066564447988 20.16038153103614 0 0 0
11347 1 11.070729018053784 12.527942029329479 20.193322260283686 0 0 0
11351 1 13.76124893990246 13.488609072427485 20.18754363729088 0 0 0
11296 2 16.480465765592495 11.578436768646954 20.204334827152188 0 0 0
11356 2 16.487579408179208 14.470655307490796 20.18352210328392 0 0 0
13804 2 0.27461793603230944 0.07763436922143711 24.853378467541653 0 0 0
13806 1 1.683085212127848 -0.8223717834257231 22.52944744374881 0 0 0
13802 1 4.264100067956534 0.07459008305138921 22.54970841345042 0 0 0
13861 2 2.9737867150927357 1.0669250658961225 24.849496610868396 0 0 0
13805 1 5.664882232991986 -0.8619113285754746 24.906332166728827 0 0 0
13809 1 7.002326896916695 -1.7346420151560829 22.582434906971603 0 0 0
13810 2 8.39544449191212 0.14707860636991113 24.88035865324262 0 0 0
13869 1 7.004071335028604 1.042744735094948 22.584306564927182 0 0 0
13807 1 11.056782882898512 -1.7594333631829817 24.89089505817419 0 0 0
13812 2 9.728691973564267 -0.8818413106667546 22.5263514242701 0 0 0
13867 1 11.071949150152147 1.1110392544721748 24.83664334466444 0 0 0
13808 1 12.406501417795889 0.09393762741237874 22.51164517549623 0 0 0
13811 2 13.738232857280288 -0.8697988922001658 24.86114485761859 0 0 0
13875 1 15.138544404010869 1.001704784475799 22.538497803831785 0 0 0
19575 2 15.124916638948072 9.666794336793119 31.83776276541318 0 0 0
13816 2 16.47677609990243 0.1028244543175942 24.929161080942535 0 0 0