LAMMPS data file via write_data, version 2 Aug 2023, timestep = 5024150, units = metal

38640 atoms
2 atom types

-1.1235042518054383 79.99707397179947 xlo xhi
-1.8279478324121359 130.10363064242839 ylo yhi
-0.9133965029520563 64.66614392848948 zlo zhi

Masses

1 92.90600000000001
2 180.948

Atoms # atomic

10201 1 0.5407036558480345 1.7466531757495536 -0.21439758486933602 0 0 0
10186 2 0.4814683775105494 -1.0563803434877186 -0.08131258045491004 0 0 0
10362 2 1.8458323259584655 0.8573410948013427 2.1965613347845494 0 0 0
715 1 -0.8117086418030619 -0.17918588981190928 2.313196120186552 0 0 0
10188 2 3.2423431282599124 -0.15343755960750113 -0.10651511065609004 0 0 0
10366 1 4.583482372207638 -1.0736903134322 2.25022785055121 0 0 0
10381 1 4.599675252548743 1.680281713814986 2.2271227748650357 0 0 0
10192 1 5.92222192067847 0.7932503031218704 -0.159101328491425 0 0 0
10204 1 8.631746735538071 1.7413263257408162 -0.11827519410110435 0 0 0
10369 1 7.225053278429187 -0.15579347563152499 2.1921769620298104 0 0 0
10365 2 9.95072408281974 0.7845026563970872 2.255959908503002 0 0 0
10189 2 8.675351858805882 -1.120871413630468 -0.0894270925711132 0 0 0
10193 1 11.328388601707589 -0.08490663277617892 -0.10692772184973603 0 0 0
10372 2 12.651118225525087 -1.0814583030706 2.184362088943183 0 0 0
10387 1 12.661606375499275 1.7701262737751102 2.2448723488773683 0 0 0
10198 2 14.05561509981159 0.7363931052622574 -0.07361813309026756 0 0 0
10210 1 16.71182349274696 1.792960576173807 -0.11198229621724452 0 0 0
10375 1 15.374267266493959 -0.2170629654266041 2.270136649815186 0 0 0
10195 2 16.774427600013823 -1.0991280658778935 -0.10951314204604298 0 0 0
10371 2 18.071931662339168 0.7710494777749362 2.2156803923343724 0 0 0
730 2 -0.8711783019331123 2.679087395711209 2.1813588088744575 0 0 0
10216 2 0.5312180923389666 4.589909340058451 -0.08946656694476125 0 0 0
745 2 -0.803811220956337 5.637318784694908 2.2383035713808295 0 0 0
10377 1 1.7990943689167571 3.7228160046563312 2.322436979206694 0 0 0
10203 2 3.1869245072449037 2.75620993331669 -0.04131489793529292 0 0 0
10218 1 3.2044258602892075 5.592320062358806 -0.16712962524528077 0 0 0
10396 2 4.553761013421357 4.554758033837334 2.1955303539081505 0 0 0
10207 1 5.924583458774426 3.65505216632476 -0.1198347351205126 0 0 0
10384 2 7.302474774060548 2.71176805800593 2.2367108139465928 0 0 0
10219 2 8.574556844417693 4.583597917414612 -0.13683145989448284 0 0 0
10399 2 7.269294032194479 5.581016035175098 2.250835870229746 0 0 0
10380 1 9.982018143027881 3.7311541519411113 2.202720776993708 0 0 0
10208 1 11.338094393819512 2.72606119451369 -0.14439760567748808 0 0 0
10223 2 11.387783835421148 5.595243806406736 -0.0930729088562613 0 0 0
10402 1 12.730888545954045 4.617365835652329 2.268801522204946 0 0 0
10213 2 14.014306985611238 3.6602192477647706 -0.09781177672515182 0 0 0
10390 2 15.399599338344366 2.6829666633264044 2.2402742837217513 0 0 0
10225 2 16.783732439169334 4.592771835926508 -0.1381028190004889 0 0 0
10405 1 15.456787672482696 5.561094027860505 2.212756905206806 0 0 0
10386 2 18.10167353688941 3.6403604112792403 2.2315494708906503 0 0 0
10392 1 1.8962230552988553 6.535294353552519 2.183705830345717 0 0 0
10231 2 0.4617089745410662 7.5395523745261475 -0.09514921810637693 0 0 0
10246 1 0.5759635381971402 10.386611397908668 -0.14540563298965967 0 0 0
10407 2 1.7778722249988428 9.402531220343098 2.271728115408968 0 0 0
760 1 -0.9365063012011379 8.47493401696518 2.306868536153167 0 0 0
10222 2 5.922825634117602 6.5514450282089705 -0.10534111716178925 0 0 0
10233 2 3.2495399880455786 8.437642033955647 -0.06153746427098852 0 0 0
10237 1 5.891640241469648 9.458007798047815 -0.18167910056385767 0 0 0
10426 2 4.577207800809877 10.299599964318174 2.196350431491488 0 0 0
10411 1 4.575398706472839 7.424946388031997 2.301219353896029 0 0 0
10395 1 9.930050715334882 6.498772739686513 2.194996743397942 0 0 0
10234 1 8.673956554341066 7.434144009090676 -0.08441902330261643 0 0 0
10249 2 8.607376395301058 10.288038834626244 -0.12045685957393681 0 0 0
10410 2 9.999542980922287 9.378362882917525 2.2789087842976543 0 0 0
10414 2 7.2393580457385145 8.4601724535294 2.1676315842565175 0 0 0
10228 1 14.111028605228574 6.469647432043803 -0.18877031524099033 0 0 0
10238 1 11.286399147704358 8.501064535507583 -0.13384403704824333 0 0 0
10417 2 12.65564529206144 7.475584137617737 2.1759287531833276 0 0 0
10243 2 14.033348988832886 9.315920581867555 -0.09938318989082706 0 0 0
10432 1 12.740843540948239 10.356579475518872 2.2382643566169644 0 0 0
10401 1 18.149519069809312 6.475429635259312 2.2707899701979235 0 0 0
10240 2 16.743322310081496 7.514781051462374 -0.046251280955125366 0 0 0
10255 2 16.731777023841833 10.392090065936253 -0.11604315416969078 0 0 0
10420 1 15.366729315740763 8.482428824998571 2.261072299546594 0 0 0
10416 2 18.091819697790182 9.33129360134322 2.242882524594541 0 0 0
10261 2 0.49614721645557053 13.258778016526119 -0.07001163591881829 0 0 0
775 2 -0.8183664080859623 11.352871301873817 2.205350637773764 0 0 0
10422 1 1.9539312619977889 12.261410451959824 2.2056790479745154 0 0 0
790 1 -0.8840009879621736 14.239294639112856 2.2678411430212697 0 0 0
10248 1 3.200504279754943 11.29316343876735 -0.11760994819810955 0 0 0
10263 1 3.2709435918056315 14.130305705067824 -0.11939151641251364 0 0 0
10252 1 5.925054353848682 12.196481353360932 -0.1005717187738649 0 0 0
10441 1 4.54763341027794 13.180241628805753 2.232377280973298 0 0 0
10264 2 8.58050857575745 13.234900777527079 -0.11233385449496251 0 0 0
10444 1 7.25961713516118 14.213164832585285 2.259825044874796 0 0 0
10425 1 10.019403644336174 12.21717129995461 2.103506916895715 0 0 0
10429 2 7.320398200742604 11.318968927554133 2.2561282307893906 0 0 0
10253 1 11.337457918596916 11.27833961181923 -0.13429390696639917 0 0 0
10268 2 11.329183614252551 14.161287558980789 -0.10452346521260458 0 0 0
10447 2 12.654406575329007 13.225492828636213 2.263442595127507 0 0 0
10258 2 14.030659721156447 12.244950937977025 -0.08271935683116206 0 0 0
10270 2 16.752397443216395 13.280413482467555 -0.12448742329150077 0 0 0
10435 1 15.407369124074567 11.289908478778427 2.256063745751152 0 0 0
10450 2 15.383134662563107 14.125673419455028 2.243198275590005 0 0 0
10431 2 18.10120861095539 12.25288722229144 2.2366160544711153 0 0 0
10437 2 1.8214682716594641 15.104709395016702 2.1839495254556014 0 0 0
10276 1 0.4509643247840851 16.130622252869696 -0.13923811392564303 0 0 0
805 1 -0.8511092240432951 17.045477779389188 2.2373002677774756 0 0 0
10452 1 1.8835297527729802 17.97859778096873 2.2531449373108745 0 0 0
10267 2 5.927675420127988 15.098368632730331 -0.0986072840870305 0 0 0
10278 2 3.1991382416702665 16.981459261009224 -0.08788354485846116 0 0 0
10282 1 5.91303647011037 17.957369519277936 -0.08842259400808614 0 0 0
10456 2 4.563718050636316 16.05194643067428 2.30031284482866 0 0 0
10440 2 9.968532832427647 15.083073782661224 2.2524507123918287 0 0 0
10279 2 8.676460711708774 16.103331586705806 -0.13465967436287968 0 0 0
10459 2 7.3006045016588645 17.013505370655793 2.2192277927323665 0 0 0
10455 1 9.997416622559664 17.982054830135908 2.242622259331917 0 0 0
10273 2 14.071647078239716 15.097573225351722 -0.1184091433823186 0 0 0
10283 1 11.37105152387487 17.015677008271968 -0.10831305134808228 0 0 0
10462 1 12.678649200033771 16.082216007931457 2.1847544284891343 0 0 0
10288 2 14.036172907438289 18.015753232346345 -0.11543377595010831 0 0 0
10446 1 18.062466193940775 15.12946380470517 2.263238677807291 0 0 0
10285 1 16.72479224738164 16.129627166406518 -0.05549450475504279 0 0 0
10465 2 15.345941172321833 17.04869210027058 2.258600356788395 0 0 0
10461 2 18.113112090454116 17.99441922332194 2.1779885417807536 0 0 0
10291 1 0.5296319030506991 18.900495308175422 -0.07169301541644606 0 0 0
10306 2 0.5177419406304385 21.76575471732612 -0.11885111568326656 0 0 0
820 2 -0.8711200374924077 19.922352733792287 2.251834259142718 0 0 0
835 1 -0.8153348443337042 22.79233939885499 2.2084169766382824 0 0 0
10467 1 1.869102050551126 20.914713397835566 2.254149295280497 0 0 0
10471 1 4.583705764616194 18.885433954099362 2.1625952799216357 0 0 0
10293 2 3.19961927425961 19.952509206381002 -0.10407095510745656 0 0 0
10297 1 5.961477535605491 20.82614689252198 -0.09908328363852809 0 0 0
10486 2 4.605862781678446 21.789925966679508 2.2329826912280994 0 0 0
10308 1 3.1805149458871202 22.833077925208876 -0.05659026496161199 0 0 0
10294 1 8.575204469705549 18.956502926059652 -0.05505668600123682 0 0 0
10309 1 8.623292640294258 21.82212494298066 -0.1050305087120298 0 0 0
10474 2 7.224182815798052 19.924762303209338 2.2996795616967427 0 0 0
10489 1 7.327175159526703 22.766200547906866 2.2525929151397426 0 0 0
10470 1 9.957152925667375 20.83084843871936 2.221204600785374 0 0 0
10477 2 12.736246255196777 18.9724359462397 2.2463713527680738 0 0 0
10298 2 11.317000206990786 19.872033097312084 -0.12625729939680352 0 0 0
10313 1 11.296593021822764 22.767187906595503 -0.13175108056693166 0 0 0
10303 2 14.036432468427959 20.886835728743453 -0.1295573007798877 0 0 0
10492 1 12.606902868863456 21.813968260620058 2.169396313926292 0 0 0
10300 1 16.752785587062974 18.97537346275593 -0.11290838786586191 0 0 0
10315 1 16.758925789800543 21.833342648571854 -0.15314017626797452 0 0 0
10495 2 15.343380594362007 22.73737873333809 2.1844971338141796 0 0 0
10480 1 15.447033198633886 19.88597491718069 2.177703158795677 0 0 0
10476 2 18.09084454349388 20.906955325362325 2.2142259980859142 0 0 0
10321 2 0.4986357938127818 24.70958891958233 -0.07152645667974228 0 0 0
10482 1 1.8425819355899464 23.7471076882451 2.2554211616513897 0 0 0
10497 2 1.8528769827933136 26.631974637847645 2.18179809038931 0 0 0
850 2 -0.8827513590032039 25.63759287931271 2.294419717672195 0 0 0
10323 1 3.220311192777939 25.677334007547138 -0.13263045640538676 0 0 0
10501 1 4.483591992255026 24.683609674991477 2.2449814557634973 0 0 0
10327 1 5.917928947857613 26.594090593377974 -0.11696862183164589 0 0 0
10312 2 5.889199423618308 23.71383999570354 -0.07542284753801556 0 0 0
10324 1 8.614578655041923 24.70171813717871 -0.11170331881172187 0 0 0
10504 2 7.2138650178454276 25.599613077888897 2.2265906564928306 0 0 0
10485 1 9.948571371337252 23.712619368346495 2.204308476524157 0 0 0
10500 2 10.002359179549467 26.568373370800657 2.270274213058331 0 0 0
10328 1 11.340322459882552 25.644952609644427 -0.10854425560994058 0 0 0
10507 2 12.692750449906868 24.66794406068815 2.2647695435030224 0 0 0
10333 1 13.992698951468599 26.532556669290983 -0.13207683503576778 0 0 0
10318 1 14.024787493950296 23.78042213158021 -0.1328903722065513 0 0 0
10330 1 16.719568446396003 24.61708331943342 -0.1457965194216473 0 0 0
10510 2 15.43193793311664 25.684495084673827 2.2081968210523066 0 0 0
10491 2 18.065255038886246 23.79462026596868 2.2425754321364546 0 0 0
10506 1 18.139306755965062 26.676835232179762 2.2375269694104047 0 0 0
10336 1 0.5132399590108765 27.506351548235443 -0.16624796565647154 0 0 0
10351 2 0.5207592006724315 30.38686360298802 -0.09127620695134073 0 0 0
865 2 -0.8279518556806847 28.49372853826259 2.169158625194624 0 0 0
10512 1 1.813625056650169 29.507854653874414 2.321803439326602 0 0 0
10516 1 4.576407327219183 27.574235378305357 2.2332634923431645 0 0 0
10338 2 3.2023145584364565 28.57780631239693 -0.07141668619815264 0 0 0
10529 2 4.540930100635271 30.445410905858726 2.149870093447307 0 0 0
10342 1 5.9444700340879715 29.43092499890313 -0.1559919192628092 0 0 0
10339 1 8.62499940648768 27.522266433216096 -0.06303316661527572 0 0 0
10353 2 8.615966551874845 30.392265577250583 -0.10988045417995812 0 0 0
10519 1 7.259817505782021 28.483359423085652 2.2511987714779464 0 0 0
10515 1 10.036999553269574 29.46277284352487 2.2078683249156104 0 0 0
10522 2 12.729330774588728 27.547931969270692 2.186476357282093 0 0 0
10343 1 11.336416107475033 28.50775998196704 -0.1331658216041359 0 0 0
10533 2 12.71797572467771 30.4584478294605 2.201761859150526 0 0 0
10348 1 14.069623766596429 29.454993760082726 -0.14985167674589725 0 0 0
10345 2 16.73026608590825 27.49460801753905 -0.11654672561867792 0 0 0
10521 1 18.075073170811226 29.426124425968037 2.236278210752949 0 0 0
10357 2 16.760039844699346 30.47031919617409 -0.08949427289415068 0 0 0
10525 1 15.395807717519116 28.551122321803977 2.263837282288112 0 0 0
10376 2 0.5194164295317903 1.7502861909286243 4.567397122665245 0 0 0
10361 1 0.4838677099953702 -1.09769663436105 4.57731056935085 0 0 0
890 1 -0.7839857683308645 -0.1876089169710025 6.811700686514868 0 0 0
10537 2 1.8457053852798917 0.8478654587780284 6.951021668541785 0 0 0
10363 2 3.170866280984786 -0.19127779417202614 4.568047099358323 0 0 0
10367 1 5.907568863485745 0.7699810478056427 4.573216757531844 0 0 0
10541 1 4.582364936285051 -1.0316990455783577 6.91031609343792 0 0 0
10556 1 4.589999547862634 1.6487228608934799 6.894233538679745 0 0 0
10379 1 8.616076636767273 1.6755526763357809 4.634061074524803 0 0 0
10364 2 8.60333532192333 -1.1479719911994473 4.505978556306733 0 0 0
10544 2 7.300881769408483 -0.21521169893248876 6.929084104816139 0 0 0
10540 1 9.955020251447227 0.8202046788321007 6.865722841628644 0 0 0
10368 2 11.360381805434276 -0.1931193047761098 4.633089074849973 0 0 0
10373 1 14.054743329892368 0.8210873226473953 4.514636053431034 0 0 0
10562 2 12.686559870184112 1.7100987447649598 6.893604039890951 0 0 0
10547 1 12.683212747306815 -1.1281859040232816 7.003149693814871 0 0 0
10385 1 16.756121063439114 1.7313785074371024 4.564555077324104 0 0 0
10370 2 16.806572068009313 -1.133716821697115 4.54209466149001 0 0 0
10550 2 15.347305670159972 -0.17085288894085876 6.87038948828069 0 0 0
10546 1 18.085587731028244 0.742994029146389 6.912667880565953 0 0 0
10391 1 0.4675988219323902 4.622437869618817 4.590231781785524 0 0 0
10552 1 1.8235919156249234 3.7026623995685246 6.845168235938152 0 0 0
920 2 -0.8307764248436903 5.604417859138766 6.944210168206062 0 0 0
905 2 -0.8570109436650143 2.674273369276392 6.948244365842231 0 0 0
10378 2 3.239032743412116 2.6940502387235106 4.564086006263629 0 0 0
10393 2 3.19862599165953 5.612050723513648 4.585338634636034 0 0 0
10382 1 5.907796418485164 3.7373876752835393 4.546229387155413 0 0 0
10571 2 4.567437935809773 4.542354533192518 6.911680838188989 0 0 0
10394 2 8.621789319496152 4.54148767887603 4.5846424260105225 0 0 0
10574 1 7.244107187982106 5.617413000570791 6.882782858790992 0 0 0
10559 2 7.26215202103596 2.742488187726426 6.926801662760742 0 0 0
10555 1 10.014587185326674 3.672590355027978 6.908918021517861 0 0 0
10383 2 11.270803519403916 2.7091190228998796 4.528900861834401 0 0 0
10398 2 11.321198733757745 5.63621989026801 4.556002662547842 0 0 0
10388 1 13.984470611540644 3.6364003249458605 4.581614890644936 0 0 0
10577 1 12.70115915928186 4.58430991198386 6.861846004692541 0 0 0
10565 2 15.394951176237274 2.735842192534301 6.925646014380234 0 0 0
10400 2 16.724335525217544 4.568223393029753 4.604304210687426 0 0 0
10580 1 15.374472124623125 5.601106687239719 6.912043437423621 0 0 0
10561 1 18.101235805600123 3.57035003081596 6.922431875318678 0 0 0
10567 1 1.9053674713990238 6.484237751812707 6.992264744007959 0 0 0
10406 2 0.5364913226396744 7.474528038741523 4.585884427485442 0 0 0
10421 1 0.44993585687165666 10.367254730801754 4.623641242548045 0 0 0
935 1 -0.896903434735319 8.471272191643843 6.883578205816294 0 0 0
10582 2 1.8656953433184544 9.348670126284484 6.864382128444564 0 0 0
10397 1 5.961912074824921 6.51980227450121 4.59641534035062 0 0 0
10408 1 3.2464911485976193 8.435876731233282 4.485563741860561 0 0 0
10412 2 5.919896098165533 9.41229658212525 4.582183232792837 0 0 0
10586 2 4.543747958693546 7.5073583880075265 6.853856451718755 0 0 0
10601 1 4.548673784717381 10.365920065681971 6.974388042802649 0 0 0
10570 1 9.929238316394176 6.505992699832698 6.903167299700362 0 0 0
10409 2 8.652678387866544 7.481702527272195 4.529368577100394 0 0 0
10424 1 8.626205049300282 10.302719847711153 4.609098928351925 0 0 0
10585 1 10.011031952695184 9.375036594690616 6.89452883335265 0 0 0
10589 2 7.3087862905373795 8.468635375023615 6.946249878320336 0 0 0
10403 2 14.080992798891927 6.4974971564660855 4.561707883609886 0 0 0
10413 1 11.427189351997304 8.464913520763131 4.5917466644691 0 0 0
10418 1 14.023762932399086 9.349357470397209 4.559467586093391 0 0 0
10592 2 12.652882293805149 7.42443944206144 6.921878599972838 0 0 0
10607 2 12.72594731966509 10.376371474885126 6.919705613927562 0 0 0
10576 2 18.09008552342974 6.4698108585528535 6.901932912607801 0 0 0
10415 2 16.770365546820596 7.476200833083554 4.5344832826710375 0 0 0
10430 2 16.752517585830283 10.341833812179697 4.617582889098926 0 0 0
10595 2 15.40240652623217 8.436545487653925 6.89922235537238 0 0 0
10591 1 18.117939342969212 9.314989480171286 6.939152456902996 0 0 0
10436 2 0.5149780986411678 13.185867998767593 4.490787697832558 0 0 0
10597 2 1.8372421527756417 12.291082027860844 6.8961292572911965 0 0 0
965 2 -0.8335096095868727 14.207429684172816 6.888823095817405 0 0 0
950 1 -0.8599040161825888 11.337544164167705 6.894398519248225 0 0 0
10423 2 3.199573471669806 11.278557750378818 4.5896983309674875 0 0 0
10438 2 3.1984137495690153 14.198124852099447 4.5660214809062145 0 0 0
10427 1 5.896107027386536 12.288587478982796 4.528213694151715 0 0 0
10616 2 4.573371099235914 13.220684522290142 6.904132295815062 0 0 0
10439 2 8.662980262456916 13.158175236704551 4.504697640151105 0 0 0
10604 1 7.239184140211013 11.306976363238467 6.8412259057495515 0 0 0
10600 2 9.963207454324847 12.225326977947427 6.979431054750225 0 0 0
10619 2 7.324868009986401 14.147894668869913 6.937552738892746 0 0 0
10428 2 11.304981849543882 11.313743854767853 4.519227254670351 0 0 0
10443 1 11.34112860482698 14.17827283862548 4.623850672877236 0 0 0
10433 2 14.06915867770037 12.2379707602166 4.62124086173247 0 0 0
10622 1 12.639115769793442 13.227076726026281 6.900593363829889 0 0 0
10445 2 16.74968582256706 13.211040642024232 4.587442629410888 0 0 0
10606 2 18.14069197390216 12.257440144894545 6.917251230956259 0 0 0
10625 2 15.345257087987745 14.137935440221295 6.9074977856519855 0 0 0
10610 1 15.468275978418902 11.317305711823119 6.958713544653486 0 0 0
10451 2 0.48868255026462054 16.066918860666956 4.601145312191738 0 0 0
10627 1 1.8505520294970168 17.99554265892842 6.867519356506232 0 0 0
10612 1 1.866643218596139 15.097773157861866 6.923356176975881 0 0 0
980 1 -0.7668886107951864 17.03479234292676 6.9959250183317705 0 0 0
10442 1 5.954000752169537 15.085624382991925 4.563584111120162 0 0 0
10453 1 3.17934810807039 17.04790295197912 4.554453237282039 0 0 0
10457 2 5.9185047976239336 18.007304163415597 4.558579387356633 0 0 0
10631 1 4.6224570514606915 16.09533966598801 6.886792323604201 0 0 0
10454 2 8.599537827977516 16.091323208188978 4.643194254703908 0 0 0
10615 1 9.996753921394948 15.06163245488964 6.864411325542453 0 0 0
10634 1 7.1605697665004024 16.992574280921552 6.936204602805812 0 0 0
10630 2 9.951408571102585 17.951951219723025 6.936697060616765 0 0 0
10448 1 14.061820393632454 15.1316819063473 4.551519062620656 0 0 0
10458 1 11.320267450000319 17.034839480890568 4.565249829757376 0 0 0
10463 1 13.987284078976371 17.97700521292025 4.602838726556585 0 0 0
10637 2 12.663944836772139 16.061250978988287 6.908579523043188 0 0 0
10460 1 16.750124898350453 16.051374991480216 4.5308211820450035 0 0 0
10636 1 18.083157479201425 18.02254030969856 6.907581814254389 0 0 0
10640 2 15.400177492177413 17.06834585310976 6.920535977078883 0 0 0
10621 1 18.041071811772845 15.11954696847673 6.8960442492135074 0 0 0
10466 1 0.5522898279151031 18.933153382721976 4.619011736095706 0 0 0
10481 2 0.48604222932746205 21.77220486858685 4.606563326425272 0 0 0
995 2 -0.8910283103752625 19.8970564409234 6.902412120942184 0 0 0
10642 2 1.9225858792094987 20.841998285046575 6.956154990632562 0 0 0
1010 1 -0.7733001582007554 22.733962233077957 7.008379975602617 0 0 0
10646 2 4.521852262301359 18.94874958155011 6.9502669579419 0 0 0
10468 2 3.2287434930253114 19.90513161877564 4.5174985725120465 0 0 0
10483 2 3.2152536946564974 22.772035784508844 4.601330630029582 0 0 0
10472 1 5.888325413201397 20.906275194111288 4.683473642920432 0 0 0
10661 1 4.606437615605922 21.808679793059653 6.873951134531827 0 0 0
10469 1 8.650672178337484 18.928167389908314 4.531242219925678 0 0 0
10484 1 8.640488531230424 21.81691046114329 4.574824343908906 0 0 0
10649 2 7.298939918541176 19.836419370874275 6.911322124225318 0 0 0
10645 1 9.975732918292781 20.847245277070282 6.908153482778952 0 0 0
10664 2 7.303374017555785 22.818932573418966 6.899936665603079 0 0 0
10652 1 12.684925593286213 18.944188837380043 6.91097969156819 0 0 0
10473 1 11.322066477903176 19.911489149993464 4.554229318480007 0 0 0
10488 2 11.36974049795705 22.796663722068622 4.550506103355068 0 0 0
10478 2 14.031602256045158 20.870208979555176 4.521094789634069 0 0 0
10667 1 12.645418967810519 21.751283514595666 6.907464306620041 0 0 0
10475 2 16.710655866128405 18.911208103264283 4.544480988624708 0 0 0
10490 2 16.751029003919086 21.8168278904627 4.5394128219475585 0 0 0
10651 1 18.107302539367787 20.87851373090642 6.900609506362412 0 0 0
10655 1 15.424199808596859 19.928539106275068 6.871583842857158 0 0 0
10670 2 15.34434174207052 22.730943911645348 6.91905085596448 0 0 0
10496 1 0.5830129687363675 24.639717046020245 4.49249699628261 0 0 0
10657 2 1.838160206558072 23.75315492867153 6.8701963929987375 0 0 0
1025 2 -0.8404442780259994 25.584457762876234 6.882298181739572 0 0 0
10672 1 1.841261891606253 26.595952687788586 7.019915623606447 0 0 0
10498 2 3.2254944636432485 25.666490120842898 4.631817219449582 0 0 0
10487 2 5.910776142826755 23.75662493518342 4.514139029165388 0 0 0
10502 1 5.951502140319076 26.596819899727528 4.619509282617197 0 0 0
10676 2 4.60538106089061 24.653519185591882 6.953689815297472 0 0 0
10499 2 8.701178886869446 24.67889346012571 4.599613538383228 0 0 0
10675 2 9.981042696774852 26.63321097431154 6.8825733114792245 0 0 0
10679 1 7.246652356153342 25.682919793852385 6.8572676271730595 0 0 0
10660 1 10.040924431144871 23.728579093613554 6.935914942670438 0 0 0
10503 1 11.386653221587718 25.659022794222448 4.5745343027733005 0 0 0
10508 2 14.024314740924442 26.618983804175365 4.56922589427304 0 0 0
10493 1 14.145418313216105 23.752599669705 4.562811423212007 0 0 0
10682 1 12.720719979032257 24.68351320942346 6.921909789878137 0 0 0
10505 1 16.682767678944355 24.63674413516101 4.588239115569897 0 0 0
10685 2 15.438950525827488 25.670146667967177 6.918240926991177 0 0 0
10681 1 18.131021069910624 26.65834830762624 6.916681268261589 0 0 0
10666 1 18.080251135524946 23.708575089654907 6.87242391009553 0 0 0
10511 2 0.5187863346372847 27.49969921202677 4.595852376404723 0 0 0
10526 1 0.4850347916826438 30.426221172362055 4.579186071922003 0 0 0
10687 2 1.8729304965689928 29.42479943316366 6.849258173683456 0 0 0
1040 2 -0.8883545972030568 28.51694252570874 6.912882209972692 0 0 0
10513 1 3.206803802915104 28.504095169030386 4.474178055660888 0 0 0
10517 2 5.867058377673392 29.490052382555547 4.618595033043028 0 0 0
10691 2 4.5483672546590475 27.607564793272715 6.882464619975083 0 0 0
10704 1 4.468368513720755 30.471199592271873 6.993149789074918 0 0 0
10514 1 8.571848202320844 27.539455878096927 4.53919805396662 0 0 0
10528 2 8.637797474129226 30.372672175049008 4.538051398665712 0 0 0
10690 1 9.97786594633503 29.54133713544834 6.88698654071005 0 0 0
10694 1 7.314361558850764 28.50984421986419 6.904487453444543 0 0 0
10518 2 11.330132667947797 28.502852218840204 4.5616231483451894 0 0 0
10523 1 14.040293923244857 29.457435046547438 4.482509198761225 0 0 0
10697 1 12.692577375752704 27.470729867749778 6.9109879715683515 0 0 0
10708 2 12.727084058620047 30.37709228594449 6.89591362170972 0 0 0
10520 2 16.75643820235311 27.511436960664888 4.568259028278169 0 0 0
10532 2 16.764257214649746 30.44988464743446 4.607905097565144 0 0 0
10700 2 15.35168642960917 28.54733419474805 6.893503624072471 0 0 0
10696 1 18.07195414104313 29.36153837727712 6.927206202328366 0 0 0
10551 1 0.5249781175330733 1.7354320815826305 9.328105744215168 0 0 0
10536 2 0.4510064487432403 -1.1323779524392206 9.221913187202908 0 0 0
10538 2 3.224234611425966 -0.2067458095529027 9.245178737474212 0 0 0
10542 2 5.935840507310245 0.8599584465916384 9.246814500283152 0 0 0
10554 1 8.667381916303274 1.738773941136379 9.247913724647761 0 0 0
10539 1 8.667929405605445 -1.0508456033887013 9.276397327233463 0 0 0
10543 1 11.324911876096541 -0.1500577110285323 9.262071208162782 0 0 0
10548 2 14.08928080623916 0.804780049735048 9.294223924158011 0 0 0
10560 1 16.811698218835613 1.6907701179426349 9.159092230002956 0 0 0
10545 2 16.699899067970243 -1.1168750051648273 9.297750353130414 0 0 0
10566 2 0.5381903459629371 4.556187176605489 9.265040215244072 0 0 0
10553 2 3.2288068077567256 2.7358228022677022 9.226278063788957 0 0 0
10568 1 3.2151199743778878 5.60887341807197 9.223264798737208 0 0 0
10557 1 5.944139060197491 3.7074585844826875 9.273020919008625 0 0 0
10569 2 8.60377390106147 4.603118599787448 9.208965960371449 0 0 0
10558 1 11.351170453869868 2.6994466995156876 9.253959163332937 0 0 0
10573 2 11.352895177355988 5.551464351331769 9.219923224648827 0 0 0
10563 1 14.033165707311785 3.7108891551732466 9.240086508778399 0 0 0
10575 2 16.79844749473991 4.5822021976699725 9.246461835619327 0 0 0
10581 2 0.4558787424257787 7.521655834435902 9.198904377760309 0 0 0
10596 1 0.5752211107290492 10.384144498267624 9.21732513658365 0 0 0
10572 1 5.907695800899624 6.548387206484821 9.233095630909387 0 0 0
10583 2 3.220824296706386 8.478446796249298 9.282444297768018 0 0 0
10587 1 5.893951535649181 9.358424508211481 9.233264128090426 0 0 0
10584 1 8.630409333438822 7.476771083212563 9.266753557773605 0 0 0
10599 2 8.582245941665994 10.363872397222481 9.257073949058128 0 0 0
10578 1 14.05215796585307 6.5011983617620075 9.262588634055728 0 0 0
10588 1 11.336462927286043 8.410726224177004 9.246951572631685 0 0 0
10593 1 14.040751130152524 9.357833129185781 9.274888318462464 0 0 0
10605 1 16.753006831410545 10.33627824491561 9.26606966601637 0 0 0
10590 1 16.730935506179 7.462349583955838 9.27342316222147 0 0 0
10611 2 0.4875092229916785 13.256304047022674 9.301633485024967 0 0 0
10598 1 3.2078698049237917 11.366715461754147 9.24576111127756 0 0 0
10613 1 3.222627048925121 14.10643209270288 9.281395837073369 0 0 0
10602 2 5.946400493485716 12.216880310563509 9.241422609522564 0 0 0
10614 1 8.5900958535887 13.250601722510257 9.332743724648514 0 0 0
10603 1 11.312866419834393 11.22545023254527 9.26319495103075 0 0 0
10618 2 11.324568694670614 14.151319788746134 9.277498129327014 0 0 0
10608 2 13.973678621841234 12.233536417385826 9.215707247282303 0 0 0
10620 2 16.704215689032534 13.219412210139753 9.291497986604266 0 0 0
10626 1 0.4933029909590806 16.135851777360642 9.235874107411721 0 0 0
10617 2 5.885583744347589 15.116042711510834 9.269847257545257 0 0 0
10628 2 3.2172224276029553 17.014824234809648 9.214728612847962 0 0 0
10632 2 5.972726835623848 18.00074465443545 9.28481443188681 0 0 0
10629 2 8.661417829674319 16.089871912461135 9.230956845468379 0 0 0
10623 2 14.087905945426435 15.139991419532294 9.25279656449333 0 0 0
10633 1 11.412802459587017 17.01129517594778 9.241386548085107 0 0 0
10638 1 13.99859484275476 18.00212072305811 9.254538542552684 0 0 0
10635 1 16.798203976463142 16.035193951311463 9.158297890311534 0 0 0
10641 2 0.5778484407191227 18.974726131855164 9.266953245687754 0 0 0
10656 1 0.46808979321381927 21.84442013254958 9.189613655911728 0 0 0
10643 1 3.299425760919235 19.889239636135184 9.35632720931171 0 0 0
10658 2 3.214180495077164 22.78483047829305 9.239121906825563 0 0 0
10647 1 5.966108088603316 20.890165125215344 9.22539633339106 0 0 0
10644 1 8.625735739343256 18.9768750238129 9.319443692918727 0 0 0
10659 1 8.644241664211576 21.77542969956642 9.234683861163711 0 0 0
10648 2 11.312781300940363 19.842042621945573 9.24751713445557 0 0 0
10663 2 11.368944639883717 22.73707341732732 9.269497273148813 0 0 0
10653 2 14.073695489519631 20.88473354091315 9.242519217833124 0 0 0
10650 2 16.72948533536426 18.94072172533896 9.258883088624904 0 0 0
10665 1 16.78599846916472 21.831512697462166 9.224705923184743 0 0 0
10671 2 0.5284306036050278 24.687029431874304 9.315839713396088 0 0 0
10673 1 3.180375424235334 25.658073196285034 9.17533516760017 0 0 0
10677 2 5.873688914828403 26.58784295981844 9.267185910228415 0 0 0
10662 1 5.950608441024635 23.672179839436616 9.279126783821182 0 0 0
10674 1 8.642548135874234 24.69052954546237 9.220455825503842 0 0 0
10678 1 11.325015000248044 25.623284806322435 9.248457391908959 0 0 0
10683 2 14.01429371560865 26.636096185969883 9.266087619969186 0 0 0
10668 1 14.061567983849761 23.765480139769263 9.264885674038023 0 0 0
10680 1 16.67820259671547 24.61673226978561 9.244999821837359 0 0 0
10686 1 0.49440197735893177 27.61103966525859 9.27023859653427 0 0 0
10701 1 0.5292303817822998 30.370225731582572 9.22562600538019 0 0 0
10688 2 3.2227750699815236 28.49273701004679 9.303857866473606 0 0 0
10692 2 5.927524465351736 29.47856475414546 9.187357200022962 0 0 0
10689 1 8.581697333270883 27.557044370714863 9.198132722645834 0 0 0
10703 2 8.660275941846939 30.412232325472832 9.279067223855575 0 0 0
10693 2 11.327323354899876 28.495662504655886 9.236927205477658 0 0 0
10698 1 14.05832580580048 29.439276439878952 9.23625563928195 0 0 0
10695 2 16.744470524573444 27.483192491707527 9.248786683610652 0 0 0
10707 2 16.72186561843995 30.402468744539025 9.236306347573782 0 0 0
10711 2 0.4762823028103968 -1.1170926526667502 13.968837564300346 0 0 0
1065 1 -0.7764178147301626 -0.15063715563366695 11.594042124907629 0 0 0
10726 1 0.5901060290960615 1.7452971339481338 13.891093107561074 0 0 0
10712 1 1.8877926238960305 0.782086778148035 11.595923780760799 0 0 0
10731 1 4.570996344310167 1.7491230761456382 11.583119856911935 0 0 0