LAMMPS data file via write_data, version 2 Aug 2023, timestep = 50026, units = metal

38640 atoms
2 atom types

-1.1067430629877035 79.98031278298673 xlo xhi
-1.8045437009953216 130.0802265109924 ylo yhi
-0.8952769044113108 64.64802429440914 zlo zhi

Masses

1 92.90600000000001
2 180.948

Atoms # atomic

4 1 0.1965838153542483 0.09593050863763253 1.3853787775146293 0 0 0
19632 2 9.733268686535054 13.518361736534008 31.862077566509228 0 0 0
2 1 4.314747664569122 0.11067605269823222 -0.8118661566443429 0 0 0
5 1 5.586167399362727 -0.8317573996139442 1.4117821014889356 0 0 0
61 2 2.9032839749821893 1.046629583820807 1.4587325400683335 0 0 0
10 2 8.285811076230459 0.09651854434386586 1.4362621787649812 0 0 0
67 2 11.035414214120316 1.0547999400347017 1.450537169413725 0 0 0
19569 2 6.960271649894915 9.64041805980709 31.86551114524086 0 0 0
11 2 13.720062284839857 -0.8715754830936672 1.4906801440061996 0 0 0
75 1 15.117872688855712 1.1198433928417533 -0.8509627988883188 0 0 0
11233 2 19.151064834709416 6.760359562892511 20.130179011834333 0 0 0
19566 1 1.5852752412804743 10.639185226105656 31.866746367969263 0 0 0
16 1 16.459242660857377 0.10527054414741133 1.4320231398677188 0 0 0
11353 1 19.158241500320948 12.565443226289162 20.209844642710426 0 0 0
5593 1 19.164057596017415 1.024701454396765 10.793912015112582 0 0 0
64 2 0.23487670186196108 2.9473699800850937 1.4799764452519146 0 0 0
66 2 1.5883762076179384 2.0529144231220235 -0.8711717162018046 0 0 0
19638 2 17.793749519180714 13.486028546951541 31.849750399516488 0 0 0
121 2 2.9714803869216855 3.903299910906705 1.465754780556697 0 0 0
62 2 4.324454853177885 2.947750155827697 -0.8923725290508834 0 0 0
65 2 5.66881167105543 2.0186436564746235 1.4521413648774901 0 0 0
70 2 8.390553603034663 2.9968774420920394 1.4309032160481547 0 0 0
129 2 7.020973746902859 3.9716733439989613 -0.8873515940915827 0 0 0
127 1 11.084102057332892 3.9733062138620654 1.5039713626288083 0 0 0
68 2 12.371085771924648 3.022140602893582 -0.842625021270697 0 0 0
73 2 19.15121487908587 1.091459243556356 1.410254654064167 0 0 0
71 2 13.765121560069998 2.0222875044241584 1.481877152055561 0 0 0
135 1 15.09456007809375 3.8981342570079254 -0.8909450628722748 0 0 0
76 1 16.48377303712551 3.007924162423391 1.432282823450418 0 0 0
124 1 0.24756380930515554 5.827650770737348 1.4549895299308035 0 0 0
126 1 1.6458246356302444 4.882993741176776 -0.8915150598784368 0 0 0
19575 2 15.125136899877358 9.666779936062479 31.837838864495893 0 0 0
181 2 2.9777234180467245 6.777939042756028 1.441116298880984 0 0 0
125 2 5.655908273072738 4.884533320688682 1.4507709315330986 0 0 0
185 2 5.659178264400747 7.747868051589146 1.439469549078415 0 0 0
130 2 8.346062958665806 5.889522657733915 1.4290747697357902 0 0 0
189 1 7.016393285306378 6.806663287546691 -0.8883028641152043 0 0 0
187 1 11.06071566368459 6.793738798138778 1.4507178692140923 0 0 0
16865 2 5.613210872707279 13.486880913113108 29.5492067233845 0 0 0
16864 1 0.22419693078447955 14.453424612050568 29.566468562613387 0 0 0
131 2 13.768712432531983 4.925320999965432 1.4305151664025053 0 0 0
191 1 13.734948148594272 7.771132282878844 1.4350377472227098 0 0 0
16804 1 0.23752717427063907 11.564628769791181 29.555305036253035 0 0 0
198 1 17.813529453714686 7.728063439640442 -0.8787031443281652 0 0 0
136 1 16.497289553314268 5.814894397287606 1.454979550994453 0 0 0
184 1 0.25864849725036687 8.59310988587503 1.4560668106060106 0 0 0
16816 2 16.445046511323405 11.569688832316459 29.520945524858142 0 0 0
241 2 2.9312925083833186 9.651204350108618 1.4430152025002898 0 0 0
182 1 4.315036339264196 8.672806836731155 -0.8925713227419458 0 0 0
245 2 5.642066706123211 10.65257592692852 1.434252315368778 0 0 0
190 1 8.325174222259088 8.764504470240954 1.483446947538186 0 0 0
249 1 7.004794169473739 9.67123308265846 -0.8560484677232897 0 0 0
247 1 11.013633718386634 9.683363368744843 1.441117903669371 0 0 0
16756 1 16.521827257931648 8.704103045956831 29.522046606429406 0 0 0
251 1 13.747316525917244 10.601485307382628 1.4491326165549778 0 0 0
255 1 15.112302188670675 9.690028615658942 -0.8657016710975005 0 0 0
258 1 17.853920175888433 10.602360820492741 -0.8913532212595683 0 0 0
253 1 19.134392308629536 9.659742154215053 1.4705256986427888 0 0 0
196 2 16.449044635269864 8.68524487185977 1.4586475191766541 0 0 0
244 1 0.22743426338676942 11.544853585727243 1.4619430270480755 0 0 0
304 1 0.22719412586647758 14.43078844007561 1.483656679601327 0 0 0
306 2 1.5376749461691734 13.503464231259244 -0.8656344070430716 0 0 0
301 1 2.9653683035956186 12.568114259547475 1.4308149884176413 0 0 0
305 1 5.655248945826134 13.479931145870939 1.4523649544007111 0 0 0
250 2 8.373519883120665 11.63468217173472 1.4526890868909703 0 0 0
310 1 8.309640165296507 14.50140567338531 1.466250125427207 0 0 0
307 1 11.078651182630127 12.48900619706599 1.4696142027106815 0 0 0
312 1 9.687643948487592 13.498100600668081 -0.8427551370704822 0 0 0
308 2 12.368675267981303 14.438601228759076 -0.8635562107225963 0 0 0
311 1 13.759220125593016 13.414996455255746 1.4242085521824301 0 0 0
315 1 15.097994651778958 12.596544557019698 -0.8909478374187743 0 0 0
318 2 17.82428861841465 13.490041424487906 -0.8882485382587479 0 0 0
256 2 16.465833667447008 11.597464170942033 1.4091587469088447 0 0 0
316 2 16.417439042103766 14.451185080527164 1.4634352563812056 0 0 0
16811 1 13.704831494435455 10.594209018256986 29.556018074522896 0 0 0
2766 1 1.6060158333589045 -0.8611003205434182 3.8102704562541336 0 0 0
2823 2 -1.0589438143661014 1.0467015963387931 3.7822041418904067 0 0 0
2762 1 4.2954946875850375 0.10150562638162963 3.776636164489416 0 0 0
2769 1 7.019155458952174 -1.797523311610165 3.779691142851631 0 0 0
2829 1 7.018097737098779 1.082782957582476 3.807186021908415 0 0 0
2772 2 9.746472731919269 -0.834607721357902 3.7657590772584117 0 0 0
2768 1 12.405599615712092 0.17436861131124415 3.8507436675446143 0 0 0
2835 1 15.112891146734537 1.0293890387849554 3.7997312895863575 0 0 0
2778 1 17.80652155952542 -0.8209826468725532 3.7489812088241545 0 0 0
2826 1 1.61526835893715 2.0793467879102203 3.8105306023294356 0 0 0
2822 1 4.350165423260764 2.977020236726936 3.8017257876601946 0 0 0
2889 1 6.992493121948835 3.9063328073857693 3.784965971844317 0 0 0
2832 1 9.659229861851419 1.9924831766828297 3.790132243840518 0 0 0
2828 1 12.381057008748009 3.0333620332392655 3.7881202855578127 0 0 0
2895 2 15.11607327536079 3.8639362825678183 3.764644637295088 0 0 0
2838 2 17.79241241853432 2.040739766557094 3.8249131453600653 0 0 0
2886 1 1.5400829928100823 4.884778315888255 3.7498220555540853 0 0 0
2946 2 1.6114506343014245 7.759765013295642 3.7858651191820036 0 0 0
2882 2 4.252314575142046 5.831738456382148 3.7919239708038384 0 0 0
2949 2 6.975830072776285 6.7666399283986784 3.8003300297113634 0 0 0
2892 2 9.669111626198777 4.87213825362528 3.782552443896925 0 0 0
2952 2 9.688635992531317 7.722692625487621 3.7626551635517758 0 0 0
2888 1 12.403751079778438 5.837935092687182 3.805614027214585 0 0 0
2955 2 15.122805507392076 6.7818466717177905 3.755964643342159 0 0 0
2898 2 17.805953050452658 4.919262285651845 3.7938543233448647 0 0 0
2958 2 17.862575886177346 7.760582021688435 3.7903853271058687 0 0 0
3003 2 -1.0770913531261739 9.618303848345388 3.7735778504191635 0 0 0
3006 1 1.585269832669623 10.611573740151051 3.7758417869878174 0 0 0
2942 2 4.329474010619013 8.71073729735446 3.7687766058736014 0 0 0
3009 1 7.003035815565136 9.637414490102717 3.718751295723178 0 0 0
3012 2 9.6882074962665 10.635860335636181 3.8268514456722964 0 0 0
2948 1 12.38626959712842 8.704489115077987 3.7828916507655337 0 0 0
3015 1 15.106212915395535 9.651493891583552 3.759692277206224 0 0 0
3018 2 17.787308290564276 10.63612499783887 3.7903858525337495 0 0 0
3066 2 1.5812025103620166 13.445519337346674 3.8135146851805044 0 0 0
3002 2 4.244873635811761 11.59274321260811 3.776676531253844 0 0 0
3062 2 4.3121771698089315 14.462245447015256 3.787235130024053 0 0 0
3069 2 6.975955440724489 12.52211124839123 3.7906192868304607 0 0 0
3072 2 9.708156363762452 13.509062538461144 3.7593240301733286 0 0 0
3008 1 12.407946804340076 11.579902077142386 3.8049796782912932 0 0 0
3068 2 12.46051923906854 14.441287263225451 3.7916972399639444 0 0 0
3075 2 15.13328857790242 12.540505123579003 3.788110255887134 0 0 0
3078 2 17.857283980410827 13.51601665071168 3.7866438898167645 0 0 0
2764 1 0.21797321053431928 0.07807364127884386 6.142227206141472 0 0 0
5526 2 1.5916340770831343 -0.8514164927048112 8.507316205136082 0 0 0
5583 1 -1.1061931899207307 1.0393879160208872 8.505746531927887 0 0 0
16807 1 11.099514997943222 9.61592660767758 29.565989913692256 0 0 0
2821 1 2.893740979606523 1.0471596206868963 6.142540210287631 0 0 0
5522 2 4.340910135044867 0.0913602819263104 8.421976120280181 0 0 0
2765 1 5.726562958656318 -0.8222985687470922 6.111767544150943 0 0 0
2770 1 8.373384052826518 0.0898367803294049 6.125829120150774 0 0 0
5589 2 7.03341986085681 1.038007704145282 8.479748900571185 0 0 0
2827 1 11.055869022748338 1.075666108316176 6.133109982128825 0 0 0
5532 1 9.717910512686016 -0.8511533404463958 8.497904631155965 0 0 0
5528 1 12.400144168186847 0.11724581197061146 8.480438662167689 0 0 0
2771 2 13.751446732176339 -0.8561327004454256 6.1414419796362125 0 0 0
5595 1 15.098407027433066 1.0735522061822413 8.437729803993069 0 0 0
2776 1 16.451128934977618 0.1066278299385921 6.1411400626124495 0 0 0
5538 1 17.82144514611206 -0.7956378953647882 8.443812525086045 0 0 0
2824 2 0.20637596093821609 2.944764811993118 6.137285721710253 0 0 0
5586 1 1.6006676718415875 2.002328492129213 8.465957757554577 0 0 0
2825 2 5.610232133404612 2.0104246081322503 6.154797915224634 0 0 0
2881 2 2.9611700702009696 3.93805419219393 6.120201022900355 0 0 0
5582 1 4.306786517496393 2.9462877878381826 8.454465374765686 0 0 0
2830 1 8.31062700464494 2.972967787334458 6.168485247189887 0 0 0
5649 2 6.967672385992847 3.9544953846645847 8.497941438054706 0 0 0
2887 2 11.012266812018146 3.9047488873151592 6.13302617226617 0 0 0
5592 1 9.709827516480145 2.0279650083340743 8.496597790430716 0 0 0
2831 1 13.749469782542183 2.0265787749124713 6.129228771531768 0 0 0
5588 1 12.419147885259893 3.042473209041876 8.482651860349602 0 0 0
5655 1 15.103867526947543 3.956466281274175 8.471055509805623 0 0 0
2836 1 16.456749700412487 3.0340219932490844 6.135215224338687 0 0 0
5598 1 17.800341255506837 2.041531573824084 8.449004240854617 0 0 0
2884 1 0.2734205234996381 5.805301517009974 6.114082819939551 0 0 0
5646 1 1.5637841674180957 4.845056897385993 8.470970796352415 0 0 0
5706 2 1.6076362802607165 7.712559386558974 8.454848911030936 0 0 0
2941 1 2.96977564014058 6.804074063442304 6.119798706870119 0 0 0
5642 2 4.276059882370049 5.832771681520947 8.474662749228841 0 0 0
2885 2 5.653345934176132 4.885101315142389 6.11121882967479 0 0 0
2945 2 5.645770858254952 7.710358379260342 6.141487642485867 0 0 0
2890 2 8.339463542507461 5.833171020156261 6.139286418652368 0 0 0
5709 1 7.018138123407919 6.7926565923572735 8.468413497016286 0 0 0
2947 2 11.021350648261816 6.771759586613834 6.149140888764051 0 0 0
5652 2 9.734917935923248 4.92280613960544 8.481927132742463 0 0 0
5712 1 9.648508095678464 7.757391783669304 8.48237966633905 0 0 0
2891 2 13.74971712896365 4.8971076726781995 6.112197587271787 0 0 0
2951 2 13.742012845511763 7.768841871085666 6.124127149511677 0 0 0
5648 1 12.427373115389598 5.788923803952985 8.460733644566776 0 0 0
5715 1 15.118456234697334 6.793171957831005 8.437650736164805 0 0 0
2896 1 16.442633848962615 5.84087663651961 6.100907335202477 0 0 0
5658 1 17.81865615396171 4.908485827722947 8.45950859192206 0 0 0
5718 1 17.813683467839134 7.807112524097619 8.476359640828687 0 0 0
2944 1 0.22390867378225487 8.661965736004156 6.133550031493682 0 0 0
5763 2 -1.0774187777851723 9.670769859777181 8.447840781067633 0 0 0
5766 2 1.604238153573754 10.612653982955564 8.496176516420476 0 0 0
3001 1 2.9634874648682947 9.66927944028274 6.124684664659393 0 0 0
5702 1 4.280199216367132 8.730513228732882 8.464307151188915 0 0 0
3005 2 5.686736348233854 10.602139371522618 6.0848584194379605 0 0 0
2950 2 8.363149766914793 8.732952236133968 6.103682618139478 0 0 0
5769 1 6.927505624297973 9.602701608743338 8.436556899459312 0 0 0
3007 1 11.086894176532343 9.62876561218322 6.101391643701891 0 0 0
5772 2 9.648091930858655 10.626896960764402 8.430883605261016 0 0 0
5708 1 12.38895729720485 8.694223250260666 8.455742186596062 0 0 0
3011 1 13.769226648961023 10.6009021921071 6.123730519512984 0 0 0
5775 1 15.093577157395593 9.648355131291755 8.440442142683267 0 0 0
2956 2 16.47837897538288 8.700008438955358 6.09013516600827 0 0 0
5778 1 17.81062067667289 10.604564497273746 8.463580348422376 0 0 0
3004 2 0.2596629580992307 11.555962384534535 6.129295600820406 0 0 0
3064 1 0.20162044412529734 14.421863757358807 6.132746439722541 0 0 0
5826 2 1.586680732428203 13.475528449681505 8.484854883702383 0 0 0
3061 1 2.9552913195335213 12.53393335372661 6.1485419691694245 0 0 0
5762 2 4.304797442812978 11.604130362201513 8.445705839513508 0 0 0
5822 2 4.304476919407577 14.450811224669632 8.469542889470894 0 0 0
3065 2 5.625620990583334 13.455943541062094 6.143657647753381 0 0 0
3010 1 8.328392073048128 11.616677350536449 6.087847428491463 0 0 0
3070 2 8.336589180061068 14.409249536214507 6.13799410024682 0 0 0
5829 2 7.022576505018925 12.489583710773111 8.453105194565612 0 0 0
3067 2 11.007478050556365 12.513707401322009 6.131222963636699 0 0 0
5832 1 9.714972079098166 13.517968319646386 8.499374941153423 0 0 0
5768 1 12.392351079207549 11.562603397846036 8.478237872638232 0 0 0
3071 2 13.725503506324657 13.462630859563994 6.154355755133821 0 0 0
5828 1 12.442503398428057 14.439571563352569 8.494103099388134 0 0 0
5835 2 15.122153278643587 12.510725440473102 8.512117224102763 0 0 0
3016 1 16.442523044664632 11.57467020645051 6.134699994387015 0 0 0
3076 2 16.443688609749636 14.406293731557742 6.168214073716751 0 0 0
5838 1 17.81502798584458 13.553824360199002 8.490014947981983 0 0 0
5524 2 0.22035641411218765 0.0944516684631409 10.851104165354744 0 0 0
5581 2 2.9680192346717904 1.0272080884326398 10.77919802583816 0 0 0
5525 2 5.66690744101377 -0.8516565865264278 10.784227758138023 0 0 0
5530 2 8.379717674858812 0.10521195445219989 10.835643198696939 0 0 0
5587 1 11.094438684145013 1.0324926804602486 10.921950588210201 0 0 0
5531 1 13.703970380516616 -0.8232121189724093 10.74293996276107 0 0 0
5536 2 16.42699036198904 0.1258432380610448 10.797549774668656 0 0 0
5584 1 0.30485783273417466 2.9407871070717477 10.813157537912748 0 0 0
5641 2 2.997694010573607 3.940698251234481 10.78330341339047 0 0 0
5585 2 5.662908611608696 2.0220785921532536 10.8108905809359 0 0 0
5590 1 8.379492863742092 2.9552398592795552 10.717600341547886 0 0 0
5647 2 11.045722693274945 3.9135860734271612 10.860900216687554 0 0 0
5591 2 13.764757921791317 2.024156405610165 10.795476544153473 0 0 0
5596 1 16.436139352237163 3.042177533573945 10.823520921641151 0 0 0
5653 2 19.131825373617396 3.9039780544187086 10.808147277055262 0 0 0
5644 1 0.2769615866330464 5.820255613885378 10.800041956340138 0 0 0
5701 1 2.9261801251448203 6.812162509996353 10.824633314836824 0 0 0
5645 1 5.651528306316287 4.922117906306619 10.87399428321632 0 0 0
5705 1 5.648661009686444 7.765408442618613 10.838948581382272 0 0 0
5650 2 8.359121101191374 5.815095274758594 10.821638801476777 0 0 0
5707 2 11.052806586396859 6.800938439230299 10.792567584852758 0 0 0
5651 2 13.747183866026706 4.922225109907783 10.855267215878442 0 0 0
5711 1 13.701667198048963 7.7620547511136255 10.786084161264096 0 0 0
5656 1 16.477171097130167 5.848245966457325 10.784141501342809 0 0 0
5704 2 0.24004569157270605 8.7085000856213 10.783071259472823 0 0 0
5761 1 2.967077419017852 9.6508567089071 10.817656036517523 0 0 0
5765 2 5.684762338383004 10.61810413659369 10.768699181125836 0 0 0
5710 2 8.346204610221235 8.737615084052432 10.81492563807388 0 0 0
5767 2 11.06480970562358 9.691365163317162 10.81422610993885 0 0 0
5771 2 13.81309937482934 10.637461141300431 10.813756019946535 0 0 0
5716 2 16.399868826957885 8.70727363416469 10.811606387454265 0 0 0
5764 2 0.2419581062824956 11.571314937951328 10.792829055819603 0 0 0
5824 1 0.22175830865776613 14.411352817248833 10.8579135056289 0 0 0
5821 2 2.9737107810748515 12.5045866618282 10.806514593918845 0 0 0
5825 2 5.644703226048437 13.491804179814459 10.788079739674622 0 0 0
5770 1 8.381128403883869 11.60484647913626 10.84993486762512 0 0 0
5830 1 8.335855352661351 14.440457643798844 10.835413993310354 0 0 0
5827 1 11.060976969963999 12.570767985683418 10.8110935457368 0 0 0
5831 1 13.743022887150847 13.491586796309381 10.843922741472994 0 0 0
5776 1 16.535183757208735 11.578830301240625 10.848787382270157 0 0 0
5836 1 16.48515455542772 14.450617226418291 10.817441638684851 0 0 0
8283 2 -1.0807409597760227 -1.7577996870671015 13.195791797421165 0 0 0
8286 1 1.6448226567545274 -0.8629223127308042 13.172866334986281 0 0 0
8284 2 0.19824956514988523 0.1362611684942574 15.48279441500441 0 0 0
8282 2 4.326453983429328 0.11921179949700744 13.13266536709688 0 0 0
8281 1 2.968987548273871 -1.7899268149765384 15.479154466350863 0 0 0
8289 1 6.935634253955406 -1.7726730694109214 13.142097254354745 0 0 0
8349 1 7.004425545635897 1.0229050338169676 13.17041859564889 0 0 0
8292 2 9.682107929879653 -0.8781188179950121 13.227972381304404 0 0 0
8288 1 12.38255994079203 0.11122406658887862 13.14772774439017 0 0 0
8295 2 15.08023269671752 -1.7660567277436674 13.123764956618697 0 0 0
8355 1 15.12923964514738 1.123578768833701 13.147354457552321 0 0 0
8298 2 17.78694974217276 -0.8569677864409028 13.144758740498709 0 0 0
8296 2 16.45293931004131 0.11756096421118434 15.454194029766413 0 0 0
8346 1 1.6071577285081744 2.0167526696307028 13.159674068260507 0 0 0
8403 1 -1.0848958684375636 3.9499990442777144 13.143966937244699 0 0 0
8342 1 4.243564656204471 2.9406199948150884 13.153971228084647 0 0 0
8409 1 6.992328782661996 3.9299142817668 13.165839476330056 0 0 0
8352 2 9.6736504346691 2.0482609142041706 13.145076473881833 0 0 0
8348 2 12.410772080088261 2.960496491025728 13.174941559679304 0 0 0
8415 1 15.094011065116192 3.9146530976596483 13.178000153312084 0 0 0
8358 2 17.83060403998401 2.0185802116622775 13.110359492204822 0 0 0
8463 1 -1.1062302334085339 6.7829792494340495 13.128238889909433 0 0 0
8406 1 1.6130902587215414 4.877101646545233 13.14157225422177 0 0 0
8466 2 1.5791791225081264 7.745145061858629 13.152615212376073 0 0 0
8404 1 0.25260248752967174 5.862082617974259 15.469686585037092 0 0 0
8402 1 4.30563449707884 5.851907593915746 13.169371668521851 0 0 0
8469 2 6.993353489160473 6.794176994418104 13.15864226836623 0 0 0
8412 1 9.688204148536894 4.890134639999248 13.167191960103803 0 0 0
8472 2 9.703741626214391 7.746915576091592 13.13263110504208 0 0 0
8408 2 12.342567830285276 5.840823936544046 13.185640735831399 0 0 0
8475 2 15.11233157103102 6.832292520542579 13.118501844750988 0 0 0
8418 2 17.761923766611147 4.951022715817247 13.196504814956008 0 0 0
8478 1 17.827732329539018 7.850180624044459 13.128030869551793 0 0 0
8473 2 19.099923562834796 6.794047355067757 15.470966635485304 0 0 0
8523 2 -1.1019223694373732 9.65780564341157 13.131895728514458 0 0 0
8526 2 1.5762101944994573 10.627880859856159 13.147585522820755 0 0 0
8462 1 4.272414790321605 8.711689187637873 13.119203311198799 0 0 0
8521 1 2.9685638747923075 9.656285210349349 15.47496132814286 0 0 0
8529 2 6.983102212636629 9.676204772544924 13.18015760594362 0 0 0
8532 2 9.707283765451312 10.61367997036427 13.145313030463118 0 0 0
8468 2 12.424422499460004 8.733898842659638 13.136218132509452 0 0 0
8535 1 15.115089763156355 9.704672467346676 13.145381887735574 0 0 0
8538 1 17.83623184721081 10.631330796873993 13.160501140757972 0 0 0
8476 2 16.424583302308562 8.703572096039931 15.474815917439926 0 0 0
8586 1 1.6081550610977653 13.472459711809051 13.084276598292195 0 0 0
8584 2 0.2906239115007829 14.442507056766438 15.4393818886277 0 0 0
16876 1 16.41453149363818 14.44140173054 29.56458239715156 0 0 0
8522 2 4.349893076639036 11.563153176150355 13.150148392152275 0 0 0
8582 2 4.278024759751235 14.450757388199978 13.12058185660629 0 0 0
8581 1 2.96305375420222 12.530592645814636 15.480819820950483 0 0 0
8589 1 7.019432109544759 12.539753533431082 13.114874339828926 0 0 0
8585 1 5.6382800059022955 13.467667878266521 15.482947598278951 0 0 0
8592 1 9.712809918985258 13.488304158739975 13.16462179400473 0 0 0
8528 2 12.400802921220523 11.612760857681966 13.149329026565706 0 0 0
8588 1 12.441859032258234 14.48447767410569 13.148959273863014 0 0 0
8595 2 15.113499172737232 12.51853365579225 13.18024229171749 0 0 0
8598 2 17.838497749984413 13.507545211197574 13.163405006165167 0 0 0
8593 1 19.136675188069432 12.55236905375994 15.481357801434246 0 0 0
11046 2 1.5852551113653914 -0.8450575190710643 17.79506727033375 0 0 0
16871 2 13.721574749565992 13.446590788662597 29.50285491064099 0 0 0
8341 2 2.9524861028328315 1.0343919630992566 15.50906394453597 0 0 0
11042 2 4.277662760598966 0.10609858909264136 17.87202453586733 0 0 0
11049 1 6.996751583615877 -1.7924859526104788 17.901892185321966 0 0 0
8285 2 5.664436827722593 -0.8551537933200546 15.524698026787124 0 0 0
8290 1 8.314759610529324 0.17595686785131948 15.499641830185343 0 0 0
11109 1 6.978264582607309 1.0604445620511225 17.864655043420857 0 0 0
8347 2 11.040136186015785 1.036985957904915 15.51432144588222 0 0 0
11052 2 9.703583495656616 -0.8093108364730524 17.79993908022605 0 0 0
11055 1 15.173134816190437 -1.7980575874747284 17.807570036943577 0 0 0
8291 1 13.76809982527987 -0.8914945476540095 15.534571933910001 0 0 0
11048 1 12.450729975038636 0.021632959498422588 17.799847610411117 0 0 0
11115 2 15.122478478957294 1.08528166737283 17.86596220533944 0 0 0
11058 1 17.808119235193033 -0.8683658399851445 17.797117673425834 0 0 0
8344 1 0.25710404722069646 2.9983960128991245 15.534052207977751 0 0 0
11106 2 1.5957620072813408 2.0224431416735054 17.845274965070065 0 0 0
8345 1 5.6268091006054615 2.01902241289631 15.514486984595862 0 0 0
8401 2 2.9423859814179387 3.930556271134741 15.504448663857453 0 0 0
11102 1 4.271605281320202 2.982907059658594 17.85874054318369 0 0 0
8350 1 8.338393992802748 2.980784807391889 15.513725228645878 0 0 0
11169 1 6.993553742189793 3.933641893976635 17.824959953927785 0 0 0
8407 2 11.062715261899486 3.9353178379563825 15.501489480724437 0 0 0
11112 1 9.659310717335064 2.052843010747463 17.84213767781718 0 0 0
8351 2 13.766691597916294 1.9826240342278405 15.49844273761255 0 0 0
11108 2 12.414781081162696 2.894991696714872 17.887012932452958 0 0 0
11175 1 15.081716362951127 3.9659135016148332 17.81587466368904 0 0 0
8356 2 16.487413562506845 3.0085720501136355 15.52319011272898 0 0 0
11118 1 17.854657999034664 1.9944698706611943 17.81047439772104 0 0 0
11166 2 1.579860250589128 4.922609460203141 17.83259027393827 0 0 0
11223 1 -1.0705247083841472 6.841897819006638 17.831350962034424 0 0 0
11226 1 1.5861706132900586 7.777228095389523 17.844371281444932 0 0 0
8405 1 5.628315953001341 4.8729974580910564 15.497916340173212 0 0 0
8461 1 2.927275589795882 6.803639375924593 15.503770784006399 0 0 0
11162 1 4.269151209643619 5.866156145261424 17.873435695261463 0 0 0
8465 1 5.647613006494389 7.770430645691604 15.48849086223856 0 0 0
8410 1 8.33132307360384 5.86436810753661 15.512480049507158 0 0 0
11229 2 6.965890843588186 6.803483633000779 17.85904695398013 0 0 0
8467 1 11.033952767521823 6.847760759969741 15.507368482937903 0 0 0
11172 1 9.70627968774985 4.864792768667181 17.84939995504187 0 0 0
11232 1 9.693969079278487 7.751402771266461 17.84947156863007 0 0 0
11168 2 12.37483525582761 5.824691904805627 17.81839905716536 0 0 0
8471 1 13.714618976569563 7.685905369351218 15.480616207613409 0 0 0
8411 1 13.756594449965975 4.83654281141493 15.51123108642205 0 0 0
11235 1 15.065516675388462 6.784522691755521 17.83606944696009 0 0 0
8416 1 16.377967164791272 5.8614960756054035 15.522937192991325 0 0 0
11178 2 17.8406861369415 4.879831490363845 17.784561587439228 0 0 0
11238 1 17.765428149310566 7.7374584354240294 17.827960855162555 0 0 0
16867 1 11.029345896924148 12.480299875088672 29.569979778825367 0 0 0
8464 2 0.2435726531021949 8.758455660012636 15.508107781662368 0 0 0
11286 1 1.6096763953042423 10.653174406318257 17.84478790839702 0 0 0
11222 2 4.31864016255957 8.7186150291684 17.822857172555185 0 0 0
8525 1 5.652229694049845 10.616910333700375 15.511322187017068 0 0 0
8470 1 8.350618410878921 8.709814319916465 15.50085158380687 0 0 0
11289 1 7.0002664763331275 9.669714139266706 17.881728212118087 0 0 0
8527 1 11.03807803537227 9.700425969943854 15.491267473040892 0 0 0
11292 1 9.700922331318676 10.605059360736618 17.850259163532836 0 0 0
8531 2 13.775895384546534 10.569159516072673 15.479206523163267 0 0 0
11228 2 12.397293079657816 8.728595135307359 17.794234322810457 0 0 0
11295 1 15.090006762600495 9.675932007193751 17.862621360327434 0 0 0
11298 1 17.79303693221494 10.57839146310182 17.848085304956367 0 0 0
8524 1 0.22621628892839252 11.594587163033307 15.496575926258497 0 0 0
11343 1 -1.0818717269980076 12.546630334233715 17.83105287559106 0 0 0
11346 1 1.6003403458355254 13.51218393393437 17.835229719547428 0 0 0
11282 1 4.301343236707648 11.590457103095321 17.84418193862839 0 0 0
11342 1 4.334219971397145 14.44670497827309 17.849483369222813 0 0 0
8590 2 8.312684780992313 14.408963742501221 15.480289366287835 0 0 0
8530 1 8.33587834514548 11.547927840177742 15.511924444960815 0 0 0
11349 1 6.997917238147231 12.53892808974502 17.827804365848873 0 0 0
8587 1 11.006391808658613 12.477712195183912 15.47451112456984 0 0 0
11352 2 9.744017275789936 13.477661065619635 17.83896446258478 0 0 0
11288 2 12.387144874802367 11.63271700495254 17.824527766281587 0 0 0
8591 2 13.704536044442545 13.479684372305144 15.529235088882992 0 0 0
11348 1 12.424392651678767 14.472035464661651 17.85925542291478 0 0 0
11355 1 15.129485059245535 12.521223978086269 17.84026400328702 0 0 0
8536 1 16.463687716051446 11.61259193257014 15.53439665201412 0 0 0
8596 2 16.441270416975286 14.478827055408683 15.50379764184924 0 0 0
11358 2 17.815360329363067 13.447635282729088 17.858288275263366 0 0 0
11044 2 0.2746052674049535 0.08242357551870483 20.17080545422951 0 0 0
11045 2 5.621123372670205 -0.8504099414231459 20.23673105536641 0 0 0
11101 2 2.9773115621815354 1.051471878597248 20.19998379334439 0 0 0
11050 2 8.372753833184593 0.1310223185407111 20.21009006124386 0 0 0
11107 2 11.100112395130884 1.0277007509926759 20.13543473284111 0 0 0
11051 2 13.80558400242115 -0.8318384051629635 20.158924258320198 0 0 0
11056 1 16.527146286443333 0.10536263872702634 20.155548330562848 0 0 0
11104 1 0.2571836276944859 2.947392408526166 20.14962798059335 0 0 0
11161 2 2.915876392119171 3.9597701466489386 20.207009032249672 0 0 0
11105 1 5.654801753482962 2.0307748306467137 20.16431514870167 0 0 0
11110 1 8.387320687313663 3.0110338973427697 20.15304778512986 0 0 0
11167 1 11.022329654644127 3.928599933527417 20.17120417356504 0 0 0
11111 1 13.800169368414089 2.0068922716706 20.24053995490686 0 0 0
11173 1 19.146176045281486 3.9401958750307444 20.174421998108894 0 0 0
11116 1 16.493914911994146 2.9533736822097425 20.17359396007452 0 0 0
11164 2 0.22137367010117526 5.816012182348812 20.212289680898994 0 0 0
11221 1 2.9475806853568534 6.809694003328344 20.09136397593304 0 0 0
11225 2 5.642689896911136 7.795538105305642 20.255739525651183 0 0 0
11165 2 5.680028225121525 4.89733471071956 20.12749301341682 0 0 0
11170 1 8.348908171250432 5.873338474661113 20.21081121975703 0 0 0
11227 1 11.066069783617909 6.808407638226399 20.16421548284531 0 0 0
11171 2 13.727622061188066 4.835135859094072 20.177416557313446 0 0 0
11231 2 13.761191654004223 7.729464531835456 20.187075244160518 0 0 0
11176 2 16.417222862127474 5.79953624795772 20.164663799082017 0 0 0
11224 2 0.2332026895908479 8.742250915409574 20.177932786622602 0 0 0
11281 1 2.932042661091649 9.68405284512587 20.162579297230597 0 0 0
11285 1 5.658638892041052 10.64320789791665 20.163520279967084 0 0 0
11230 1 8.381950098433503 8.71449959539099 20.190019902437623 0 0 0
11287 1 11.069921068629679 9.670485207945777 20.177387929899645 0 0 0
11291 1 13.783726047606718 10.586532712568811 20.105567262917585 0 0 0
11236 2 16.49089383308207 8.660468571850569 20.171557731014897 0 0 0
11284 2 0.21556426417803332 11.591134984735746 20.172739413813357 0 0 0
11344 2 0.2544341660481413 14.44105857807498 20.181547913982122 0 0 0
11341 2 2.9434161203186555 12.557892995074958 20.206233761249447 0 0 0
11345 1 5.63378631216824 13.525072423554882 20.151620195472685 0 0 0
11290 1 8.345475635761582 11.583037263717799 20.187660824437952 0 0 0
11350 1 8.357726643876124 14.428025369054701 20.160463243940928 0 0 0
11347 1 11.070957881051816 12.527905553356895 20.1933993537512 0 0 0
11351 1 13.761516273072933 13.488598113307756 20.187633916470578 0 0 0
11296 2 16.4807114686665 11.578444917607214 20.204428833552964 0 0 0
11356 2 16.48786143221058 14.470653592798723 20.183609943984365 0 0 0
16810 1 8.302710478484679 11.595078855235634 29.555115323602074 0 0 0
13804 2 0.27474841100552405 0.07760023727137288 24.853405762960676 0 0 0
13806 1 1.683219858079852 -0.8223921583866903 22.529463765043054 0 0 0
13802 1 4.264242915936503 0.07457443121409324 22.5497264804984 0 0 0
13861 2 2.973921993007651 1.0669141236314004 24.84950649437375 0 0 0
13805 1 5.66500265101506 -0.8619316848967957 24.906347391593098 0 0 0
13809 1 7.002442338056806 -1.7346502964506392 22.582436088246272 0 0 0
13810 2 8.395569098930048 0.14706541024188158 24.88037705106924 0 0 0
13869 1 7.004209872292039 1.04273090209682 22.584332492111955 0 0 0
13807 1 11.056898083493238 -1.7594438235396432 24.89089818749023 0 0 0
13812 2 9.728815191829122 -0.8818354376276557 22.52636346058401 0 0 0
13867 1 11.072081977771026 1.111025797078801 24.83666006981237 0 0 0