 # Bcc Nb oriented X=[11-2], Y=[111], Z=[1-10].
  
       38640  atoms
           2  atom types
 
      0.000000000000      77.432956950000  xlo xhi
      0.000000000000     125.932748580000  ylo yhi
      0.000000000000      62.588313950000  zlo zhi
 
Masses
 
            1   92.90638000             # Nb
            2   50.94150000             # V
 
Atoms # atomic
 
         1    1        3.871647847500       0.000000000000       2.235297195021
         2    1        5.162197388110       1.825111841983       0.000000000000
         3    1        0.000000000000       0.000000000000       0.000000000000
         4    2        1.290549540610       1.825111841983       2.235297195021
         5    2        6.452746154390       0.912556550655       2.235297195021
         6    1        2.581098306890       0.912556550655       0.000000000000
         7    1       11.614943542500       0.000000000000       2.235297195021
         8    1       12.905493083110       1.825111841983       0.000000000000
         9    1        7.743295695000       0.000000000000       0.000000000000
        10    2        9.033845235610       1.825111841983       2.235297195021
        11    1       14.196041849390       0.912556550655       2.235297195021
        12    1       10.324394001890       0.912556550655       0.000000000000
        13    1       19.358239237500       0.000000000000       2.235297195021
        14    1       20.648788778110       1.825111841983       0.000000000000
        15    2       15.486591390000       0.000000000000       0.000000000000
        16    1       16.777140930610       1.825111841983       2.235297195021
        17    1       21.939337544390       0.912556550655       2.235297195021
        18    2       18.067689696890       0.912556550655       0.000000000000
        19    1       27.101534932500       0.000000000000       2.235297195021
        20    1       28.392084473110       1.825111841983       0.000000000000
        21    1       23.229887085000       0.000000000000       0.000000000000
        22    1       24.520436625610       1.825111841983       2.235297195021
        23    1       29.682633239390       0.912556550655       2.235297195021
        24    1       25.810985391890       0.912556550655       0.000000000000
        25    2       34.844830627500       0.000000000000       2.235297195021
        26    1       36.135380168110       1.825111841983       0.000000000000
        27    1       30.973182780000       0.000000000000       0.000000000000
        28    1       32.263732320610       1.825111841983       2.235297195021
        29    1       37.425928934390       0.912556550655       2.235297195021
        30    1       33.554281086890       0.912556550655       0.000000000000
        31    1       42.588126322500       0.000000000000       2.235297195021
        32    2       43.878675863110       1.825111841983       0.000000000000
        33    2       38.716478475000       0.000000000000       0.000000000000
        34    2       40.007028015610       1.825111841983       2.235297195021
        35    2       45.169224629390       0.912556550655       2.235297195021
        36    1       41.297576781890       0.912556550655       0.000000000000
        37    1       50.331422017500       0.000000000000       2.235297195021
        38    1       51.621971558110       1.825111841983       0.000000000000
        39    1       46.459774170000       0.000000000000       0.000000000000
        40    2       47.750323710610       1.825111841983       2.235297195021
        41    2       52.912520324390       0.912556550655       2.235297195021
        42    1       49.040872476890       0.912556550655       0.000000000000
        43    1       58.074717712500       0.000000000000       2.235297195021
        44    1       59.365267253110       1.825111841983       0.000000000000
        45    1       54.203069865000       0.000000000000       0.000000000000
        46    1       55.493619405610       1.825111841983       2.235297195021
        47    2       60.655816019390       0.912556550655       2.235297195021
        48    2       56.784168171890       0.912556550655       0.000000000000
        49    1       65.818013407500       0.000000000000       2.235297195021
        50    1       67.108562948110       1.825111841983       0.000000000000
        51    1       61.946365560000       0.000000000000       0.000000000000
        52    1       63.236915100610       1.825111841983       2.235297195021
        53    2       68.399111714390       0.912556550655       2.235297195021
        54    1       64.527463866890       0.912556550655       0.000000000000
        55    2       73.561309102500       0.000000000000       2.235297195021
        56    1       74.851858643110       1.825111841983       0.000000000000
        57    1       69.689661255000       0.000000000000       0.000000000000
        58    2       70.980210795610       1.825111841983       2.235297195021
        59    1       76.142407409390       0.912556550655       2.235297195021
        60    1       72.270759561890       0.912556550655       0.000000000000
        61    1        3.871647847500       2.737668392638       2.235297195021
        62    1        5.162197388110       4.562780234621       0.000000000000
        63    1        0.000000000000       2.737668392638       0.000000000000
        64    1        1.290549540610       4.562780234621       2.235297195021
        65    2        6.452746154390       3.650224943293       2.235297195021
        66    2        2.581098306890       3.650224943293       0.000000000000
        67    1       11.614943542500       2.737668392638       2.235297195021
        68    1       12.905493083110       4.562780234621       0.000000000000
        69    1        7.743295695000       2.737668392638       0.000000000000
        70    1        9.033845235610       4.562780234621       2.235297195021
        71    1       14.196041849390       3.650224943293       2.235297195021
        72    1       10.324394001890       3.650224943293       0.000000000000
        73    1       19.358239237500       2.737668392638       2.235297195021
        74    1       20.648788778110       4.562780234621       0.000000000000
        75    2       15.486591390000       2.737668392638       0.000000000000
        76    2       16.777140930610       4.562780234621       2.235297195021
        77    2       21.939337544390       3.650224943293       2.235297195021
        78    1       18.067689696890       3.650224943293       0.000000000000
        79    1       27.101534932500       2.737668392638       2.235297195021
        80    1       28.392084473110       4.562780234621       0.000000000000
        81    1       23.229887085000       2.737668392638       0.000000000000
        82    2       24.520436625610       4.562780234621       2.235297195021
        83    1       29.682633239390       3.650224943293       2.235297195021
        84    1       25.810985391890       3.650224943293       0.000000000000
        85    1       34.844830627500       2.737668392638       2.235297195021
        86    2       36.135380168110       4.562780234621       0.000000000000
        87    1       30.973182780000       2.737668392638       0.000000000000
        88    2       32.263732320610       4.562780234621       2.235297195021
        89    1       37.425928934390       3.650224943293       2.235297195021
        90    1       33.554281086890       3.650224943293       0.000000000000
        91    2       42.588126322500       2.737668392638       2.235297195021
        92    1       43.878675863110       4.562780234621       0.000000000000
        93    1       38.716478475000       2.737668392638       0.000000000000
        94    2       40.007028015610       4.562780234621       2.235297195021
        95    1       45.169224629390       3.650224943293       2.235297195021
        96    2       41.297576781890       3.650224943293       0.000000000000
        97    2       50.331422017500       2.737668392638       2.235297195021
        98    2       51.621971558110       4.562780234621       0.000000000000
        99    2       46.459774170000       2.737668392638       0.000000000000
       100    2       47.750323710610       4.562780234621       2.235297195021
       101    1       52.912520324390       3.650224943293       2.235297195021
       102    1       49.040872476890       3.650224943293       0.000000000000
       103    2       58.074717712500       2.737668392638       2.235297195021
       104    1       59.365267253110       4.562780234621       0.000000000000
       105    1       54.203069865000       2.737668392638       0.000000000000
       106    1       55.493619405610       4.562780234621       2.235297195021
       107    1       60.655816019390       3.650224943293       2.235297195021
       108    2       56.784168171890       3.650224943293       0.000000000000
       109    1       65.818013407500       2.737668392638       2.235297195021
       110    2       67.108562948110       4.562780234621       0.000000000000
       111    2       61.946365560000       2.737668392638       0.000000000000
       112    1       63.236915100610       4.562780234621       2.235297195021
       113    1       68.399111714390       3.650224943293       2.235297195021
       114    1       64.527463866890       3.650224943293       0.000000000000
       115    1       73.561309102500       2.737668392638       2.235297195021
       116    2       74.851858643110       4.562780234621       0.000000000000
       117    2       69.689661255000       2.737668392638       0.000000000000
       118    2       70.980210795610       4.562780234621       2.235297195021
       119    2       76.142407409390       3.650224943293       2.235297195021
       120    2       72.270759561890       3.650224943293       0.000000000000
       121    2        3.871647847500       5.475336785276       2.235297195021
       122    2        5.162197388110       7.300448627259       0.000000000000
       123    1        0.000000000000       5.475336785276       0.000000000000
       124    2        1.290549540610       7.300448627259       2.235297195021
       125    2        6.452746154390       6.387893335931       2.235297195021
       126    2        2.581098306890       6.387893335931       0.000000000000
       127    1       11.614943542500       5.475336785276       2.235297195021
       128    1       12.905493083110       7.300448627259       0.000000000000
       129    2        7.743295695000       5.475336785276       0.000000000000
       130    2        9.033845235610       7.300448627259       2.235297195021
       131    1       14.196041849390       6.387893335931       2.235297195021
       132    1       10.324394001890       6.387893335931       0.000000000000
       133    2       19.358239237500       5.475336785276       2.235297195021
       134    1       20.648788778110       7.300448627259       0.000000000000
       135    1       15.486591390000       5.475336785276       0.000000000000
       136    2       16.777140930610       7.300448627259       2.235297195021
       137    1       21.939337544390       6.387893335931       2.235297195021
       138    1       18.067689696890       6.387893335931       0.000000000000
       139    2       27.101534932500       5.475336785276       2.235297195021
       140    2       28.392084473110       7.300448627259       0.000000000000
       141    1       23.229887085000       5.475336785276       0.000000000000
       142    2       24.520436625610       7.300448627259       2.235297195021
       143    1       29.682633239390       6.387893335931       2.235297195021
       144    2       25.810985391890       6.387893335931       0.000000000000
       145    2       34.844830627500       5.475336785276       2.235297195021
       146    1       36.135380168110       7.300448627259       0.000000000000
       147    1       30.973182780000       5.475336785276       0.000000000000
       148    2       32.263732320610       7.300448627259       2.235297195021
       149    1       37.425928934390       6.387893335931       2.235297195021
       150    2       33.554281086890       6.387893335931       0.000000000000
       151    1       42.588126322500       5.475336785276       2.235297195021
       152    2       43.878675863110       7.300448627259       0.000000000000
       153    1       38.716478475000       5.475336785276       0.000000000000
       154    1       40.007028015610       7.300448627259       2.235297195021
       155    1       45.169224629390       6.387893335931       2.235297195021
       156    1       41.297576781890       6.387893335931       0.000000000000
       157    2       50.331422017500       5.475336785276       2.235297195021
       158    2       51.621971558110       7.300448627259       0.000000000000
       159    2       46.459774170000       5.475336785276       0.000000000000
       160    2       47.750323710610       7.300448627259       2.235297195021
       161    2       52.912520324390       6.387893335931       2.235297195021
       162    1       49.040872476890       6.387893335931       0.000000000000
       163    1       58.074717712500       5.475336785276       2.235297195021
       164    1       59.365267253110       7.300448627259       0.000000000000
       165    1       54.203069865000       5.475336785276       0.000000000000
       166    2       55.493619405610       7.300448627259       2.235297195021
       167    1       60.655816019390       6.387893335931       2.235297195021
       168    1       56.784168171890       6.387893335931       0.000000000000
       169    1       65.818013407500       5.475336785276       2.235297195021
       170    1       67.108562948110       7.300448627259       0.000000000000
       171    2       61.946365560000       5.475336785276       0.000000000000
       172    1       63.236915100610       7.300448627259       2.235297195021
       173    2       68.399111714390       6.387893335931       2.235297195021
       174    1       64.527463866890       6.387893335931       0.000000000000
       175    2       73.561309102500       5.475336785276       2.235297195021
       176    2       74.851858643110       7.300448627259       0.000000000000
       177    2       69.689661255000       5.475336785276       0.000000000000
       178    1       70.980210795610       7.300448627259       2.235297195021
       179    1       76.142407409390       6.387893335931       2.235297195021
       180    1       72.270759561890       6.387893335931       0.000000000000
       181    2        3.871647847500       8.213005177914       2.235297195021
       182    1        5.162197388110      10.038117019897       0.000000000000
       183    1        0.000000000000       8.213005177914       0.000000000000
       184    1        1.290549540610      10.038117019897       2.235297195021
       185    1        6.452746154390       9.125561728569       2.235297195021
       186    1        2.581098306890       9.125561728569       0.000000000000
       187    1       11.614943542500       8.213005177914       2.235297195021
       188    1       12.905493083110      10.038117019897       0.000000000000
       189    1        7.743295695000       8.213005177914       0.000000000000
       190    1        9.033845235610      10.038117019897       2.235297195021
       191    2       14.196041849390       9.125561728569       2.235297195021
       192    2       10.324394001890       9.125561728569       0.000000000000
       193    1       19.358239237500       8.213005177914       2.235297195021
       194    1       20.648788778110      10.038117019897       0.000000000000
       195    2       15.486591390000       8.213005177914       0.000000000000
       196    2       16.777140930610      10.038117019897       2.235297195021
       197    1       21.939337544390       9.125561728569       2.235297195021
       198    2       18.067689696890       9.125561728569       0.000000000000
       199    2       27.101534932500       8.213005177914       2.235297195021
       200    2       28.392084473110      10.038117019897       0.000000000000
       201    2       23.229887085000       8.213005177914       0.000000000000
       202    2       24.520436625610      10.038117019897       2.235297195021
       203    2       29.682633239390       9.125561728569       2.235297195021
       204    2       25.810985391890       9.125561728569       0.000000000000
       205    1       34.844830627500       8.213005177914       2.235297195021
       206    2       36.135380168110      10.038117019897       0.000000000000
       207    1       30.973182780000       8.213005177914       0.000000000000
       208    1       32.263732320610      10.038117019897       2.235297195021
       209    1       37.425928934390       9.125561728569       2.235297195021
       210    1       33.554281086890       9.125561728569       0.000000000000
       211    2       42.588126322500       8.213005177914       2.235297195021
       212    2       43.878675863110      10.038117019897       0.000000000000
       213    2       38.716478475000       8.213005177914       0.000000000000
       214    2       40.007028015610      10.038117019897       2.235297195021
       215    2       45.169224629390       9.125561728569       2.235297195021
       216    2       41.297576781890       9.125561728569       0.000000000000
       217    2       50.331422017500       8.213005177914       2.235297195021
       218    2       51.621971558110      10.038117019897       0.000000000000
       219    2       46.459774170000       8.213005177914       0.000000000000
       220    1       47.750323710610      10.038117019897       2.235297195021
       221    2       52.912520324390       9.125561728569       2.235297195021
       222    2       49.040872476890       9.125561728569       0.000000000000
       223    1       58.074717712500       8.213005177914       2.235297195021
       224    1       59.365267253110      10.038117019897       0.000000000000
       225    1       54.203069865000       8.213005177914       0.000000000000
       226    2       55.493619405610      10.038117019897       2.235297195021
       227    1       60.655816019390       9.125561728569       2.235297195021
       228    1       56.784168171890       9.125561728569       0.000000000000
       229    1       65.818013407500       8.213005177914       2.235297195021
       230    1       67.108562948110      10.038117019897       0.000000000000
       231    1       61.946365560000       8.213005177914       0.000000000000
       232    2       63.236915100610      10.038117019897       2.235297195021
       233    1       68.399111714390       9.125561728569       2.235297195021
       234    1       64.527463866890       9.125561728569       0.000000000000
       235    2       73.561309102500       8.213005177914       2.235297195021
       236    2       74.851858643110      10.038117019897       0.000000000000
       237    2       69.689661255000       8.213005177914       0.000000000000
       238    1       70.980210795610      10.038117019897       2.235297195021
       239    1       76.142407409390       9.125561728569       2.235297195021
       240    1       72.270759561890       9.125561728569       0.000000000000
       241    1        3.871647847500      10.950673570552       2.235297195021
       242    1        5.162197388110      12.775786671862       0.000000000000
       243    1        0.000000000000      10.950673570552       0.000000000000
       244    1        1.290549540610      12.775786671862       2.235297195021
       245    1        6.452746154390      11.863230121207       2.235297195021
       246    2        2.581098306890      11.863230121207       0.000000000000
       247    1       11.614943542500      10.950673570552       2.235297195021
       248    2       12.905493083110      12.775786671862       0.000000000000
       249    1        7.743295695000      10.950673570552       0.000000000000
       250    1        9.033845235610      12.775786671862       2.235297195021
       251    1       14.196041849390      11.863230121207       2.235297195021
       252    2       10.324394001890      11.863230121207       0.000000000000
       253    2       19.358239237500      10.950673570552       2.235297195021
       254    1       20.648788778110      12.775786671862       0.000000000000
       255    1       15.486591390000      10.950673570552       0.000000000000
       256    1       16.777140930610      12.775786671862       2.235297195021
       257    1       21.939337544390      11.863230121207       2.235297195021
       258    1       18.067689696890      11.863230121207       0.000000000000
       259    2       27.101534932500      10.950673570552       2.235297195021
       260    1       28.392084473110      12.775786671862       0.000000000000
       261    1       23.229887085000      10.950673570552       0.000000000000
       262    1       24.520436625610      12.775786671862       2.235297195021
       263    2       29.682633239390      11.863230121207       2.235297195021
       264    2       25.810985391890      11.863230121207       0.000000000000
       265    2       34.844830627500      10.950673570552       2.235297195021
       266    2       36.135380168110      12.775786671862       0.000000000000
       267    1       30.973182780000      10.950673570552       0.000000000000
       268    1       32.263732320610      12.775786671862       2.235297195021
       269    1       37.425928934390      11.863230121207       2.235297195021
       270    1       33.554281086890      11.863230121207       0.000000000000
       271    2       42.588126322500      10.950673570552       2.235297195021
       272    2       43.878675863110      12.775786671862       0.000000000000
       273    2       38.716478475000      10.950673570552       0.000000000000
       274    1       40.007028015610      12.775786671862       2.235297195021
       275    2       45.169224629390      11.863230121207       2.235297195021
       276    1       41.297576781890      11.863230121207       0.000000000000
       277    1       50.331422017500      10.950673570552       2.235297195021
       278    1       51.621971558110      12.775786671862       0.000000000000
       279    1       46.459774170000      10.950673570552       0.000000000000
       280    1       47.750323710610      12.775786671862       2.235297195021
       281    2       52.912520324390      11.863230121207       2.235297195021
       282    2       49.040872476890      11.863230121207       0.000000000000
       283    2       58.074717712500      10.950673570552       2.235297195021
       284    2       59.365267253110      12.775786671862       0.000000000000
       285    2       54.203069865000      10.950673570552       0.000000000000
       286    2       55.493619405610      12.775786671862       2.235297195021
       287    2       60.655816019390      11.863230121207       2.235297195021
       288    2       56.784168171890      11.863230121207       0.000000000000
       289    2       65.818013407500      10.950673570552       2.235297195021
       290    2       67.108562948110      12.775786671862       0.000000000000
       291    1       61.946365560000      10.950673570552       0.000000000000
       292    2       63.236915100610      12.775786671862       2.235297195021
       293    1       68.399111714390      11.863230121207       2.235297195021
       294    1       64.527463866890      11.863230121207       0.000000000000
       295    2       73.561309102500      10.950673570552       2.235297195021
       296    1       74.851858643110      12.775786671862       0.000000000000
       297    1       69.689661255000      10.950673570552       0.000000000000
       298    2       70.980210795610      12.775786671862       2.235297195021
       299    1       76.142407409390      11.863230121207       2.235297195021
       300    1       72.270759561890      11.863230121207       0.000000000000
       301    1        3.871647847500      13.688341963190       2.235297195021
       302    1        5.162197388110      15.513455064500       0.000000000000
       303    1        0.000000000000      13.688341963190       0.000000000000
       304    1        1.290549540610      15.513455064500       2.235297195021
       305    2        6.452746154390      14.600898513845       2.235297195021
       306    2        2.581098306890      14.600898513845       0.000000000000
       307    1       11.614943542500      13.688341963190       2.235297195021
       308    2       12.905493083110      15.513455064500       0.000000000000
       309    1        7.743295695000      13.688341963190       0.000000000000
       310    2        9.033845235610      15.513455064500       2.235297195021
       311    2       14.196041849390      14.600898513845       2.235297195021
       312    2       10.324394001890      14.600898513845       0.000000000000
       313    2       19.358239237500      13.688341963190       2.235297195021
       314    2       20.648788778110      15.513455064500       0.000000000000
       315    2       15.486591390000      13.688341963190       0.000000000000
       316    2       16.777140930610      15.513455064500       2.235297195021
       317    1       21.939337544390      14.600898513845       2.235297195021
       318    1       18.067689696890      14.600898513845       0.000000000000
       319    1       27.101534932500      13.688341963190       2.235297195021
       320    1       28.392084473110      15.513455064500       0.000000000000
       321    2       23.229887085000      13.688341963190       0.000000000000
       322    1       24.520436625610      15.513455064500       2.235297195021
       323    1       29.682633239390      14.600898513845       2.235297195021
       324    2       25.810985391890      14.600898513845       0.000000000000
       325    2       34.844830627500      13.688341963190       2.235297195021
       326    2       36.135380168110      15.513455064500       0.000000000000
       327    1       30.973182780000      13.688341963190       0.000000000000
       328    1       32.263732320610      15.513455064500       2.235297195021
       329    1       37.425928934390      14.600898513845       2.235297195021
       330    1       33.554281086890      14.600898513845       0.000000000000
       331    1       42.588126322500      13.688341963190       2.235297195021
       332    1       43.878675863110      15.513455064500       0.000000000000
       333    2       38.716478475000      13.688341963190       0.000000000000
       334    2       40.007028015610      15.513455064500       2.235297195021
       335    2       45.169224629390      14.600898513845       2.235297195021
       336    2       41.297576781890      14.600898513845       0.000000000000
       337    2       50.331422017500      13.688341963190       2.235297195021
       338    1       51.621971558110      15.513455064500       0.000000000000
       339    2       46.459774170000      13.688341963190       0.000000000000
       340    1       47.750323710610      15.513455064500       2.235297195021
       341    1       52.912520324390      14.600898513845       2.235297195021
       342    2       49.040872476890      14.600898513845       0.000000000000
       343    2       58.074717712500      13.688341963190       2.235297195021
       344    1       59.365267253110      15.513455064500       0.000000000000
       345    1       54.203069865000      13.688341963190       0.000000000000
       346    2       55.493619405610      15.513455064500       2.235297195021
       347    1       60.655816019390      14.600898513845       2.235297195021
       348    1       56.784168171890      14.600898513845       0.000000000000
       349    1       65.818013407500      13.688341963190       2.235297195021
       350    2       67.108562948110      15.513455064500       0.000000000000
       351    1       61.946365560000      13.688341963190       0.000000000000
       352    1       63.236915100610      15.513455064500       2.235297195021
       353    1       68.399111714390      14.600898513845       2.235297195021
       354    2       64.527463866890      14.600898513845       0.000000000000
       355    1       73.561309102500      13.688341963190       2.235297195021
       356    2       74.851858643110      15.513455064500       0.000000000000
       357    2       69.689661255000      13.688341963190       0.000000000000
       358    2       70.980210795610      15.513455064500       2.235297195021
       359    1       76.142407409390      14.600898513845       2.235297195021
       360    1       72.270759561890      14.600898513845       0.000000000000
       361    1        3.871647847500      16.426010355828       2.235297195021
       362    1        5.162197388110      18.251123457138       0.000000000000
       363    1        0.000000000000      16.426010355828       0.000000000000
       364    1        1.290549540610      18.251123457138       2.235297195021
       365    2        6.452746154390      17.338566906483       2.235297195021
       366    2        2.581098306890      17.338566906483       0.000000000000
       367    2       11.614943542500      16.426010355828       2.235297195021
       368    2       12.905493083110      18.251123457138       0.000000000000
       369    1        7.743295695000      16.426010355828       0.000000000000
       370    1        9.033845235610      18.251123457138       2.235297195021