LAMMPS data file via write_data, version 2 Aug 2023, timestep = 5025224, units = metal

38640 atoms
2 atom types

0.7717021847876174 78.10186753523038 xlo xhi
1.2136973115251082 127.0619854984317 ylo yhi
0.6146502521664876 63.13809713784241 zlo zhi

Masses

1 92.90600000000001
2 50.942

Atoms # atomic

7748 1 3.7695579553670373 5.625491972570977 2.8339071199221104 0 1 0
7733 1 3.808215764809582 2.8739912381152894 2.8212150581337516 0 1 0
36845 2 1.211163284200562 4.720851742386585 2.8161922775097126 1 1 0
36831 1 1.1875768623041654 1.9590454612857229 2.776956423737072 1 1 0
7734 2 5.069023156357432 4.712475974326011 5.039371480650176 0 1 0
7732 2 8.96542894929275 4.70654565536456 2.8429008983909076 0 1 0
7736 1 6.383272828761252 3.7792037779796157 2.801572752974617 0 1 0
7717 2 8.98614894460601 1.9620603510776535 2.837596955836797 0 1 0
7746 2 7.683372322365728 5.613609690622221 5.034785064585645 0 1 0
7731 1 7.687572966088525 2.861358748207762 5.040554469356828 0 1 0
1497 1 15.34753571129211 30.219242673531078 31.863175773994232 0 0 0
7735 1 10.225380677836696 3.8183497666616195 5.0783871626656945 0 1 0
7754 2 11.489833615280116 5.622229852732158 2.8700011502610216 0 1 0
7742 2 14.02101040810055 3.7497943575913366 2.8345063580416214 0 1 0
7739 2 11.495991030724944 2.9193952960789304 2.8332310348727567 0 1 0
7555 2 12.778671255597034 1.9450804499828809 0.6576462289344902 0 1 0
7725 1 12.785232665006848 1.9554563823373958 5.058752658044782 0 1 0
7743 1 19.2118731813698 2.8434991991807115 2.8871042019226953 0 1 0
7758 1 19.202250875338322 5.564893590443706 2.840858003828613 0 1 0
7738 1 16.611342060730852 4.693164554195456 2.8463526926264135 0 1 0
7723 1 16.6427701580014 1.9560771030120068 2.848413317920098 0 1 0
7737 1 15.329236783341292 2.849401899017345 5.070446999028026 0 1 0
7571 2 17.929286790434293 3.7579971126774168 0.6868337657770164 0 1 0
7582 1 15.348082474479398 5.617218822166173 0.6274940732018459 0 1 0
1501 1 17.95395610572234 31.08447537227588 31.861726503051067 0 0 0
1486 2 17.904581062789827 28.36014493755792 31.855027913653302 0 0 0
7763 2 3.7309475021369116 8.345122723663025 2.857095322565535 0 1 0
36859 2 1.201943057064422 7.469216827289975 2.8404860364134428 1 1 0
7764 2 5.1196335599783875 10.194769537382877 5.050058656583757 0 1 0
1503 1 19.25698929739942 30.183393412429865 29.65990109976434 0 0 0
7751 1 6.314477636552427 6.517229222503531 2.8396084612254398 0 1 0
7747 1 8.908198365780729 7.435232956926736 2.8403354320063428 0 1 0
7766 2 6.348747974925957 9.233208996816048 2.8583794463307286 0 1 0
7762 2 8.868374894902145 10.139271541591231 2.887413233541229 0 1 0
7580 1 10.189656571877302 6.544527718405713 0.6413528231470983 0 1 0
7761 1 7.611244510849254 8.359945825742475 5.052153454735317 0 1 0
7750 2 10.207294151900117 6.5800140851995 5.06638957393987 0 1 0
7757 2 14.004543051930499 6.524257997010639 2.8543202266908727 0 1 0
7769 2 11.563685997373433 8.330284093168284 2.8741181686090496 0 1 0
7772 2 14.054953485971849 9.19983834842433 2.8778931907698895 0 1 0
7585 1 12.760249228892192 7.442712069286077 0.6232944941640892 0 1 0
7755 2 12.74401954914666 7.361820784015702 5.07617624550515 0 1 0
1498 2 16.729485901717478 32.04625914311654 29.63646156940308 0 0 0
7753 2 16.534576141863525 7.4072537621234815 2.8732107284474777 0 1 0
7773 1 19.170937079465933 8.320913742741467 2.8382876108878703 0 1 0
7768 2 16.587760588759064 10.134345266891708 2.8823958436648667 0 1 0
7586 2 17.95755772440848 6.49458956556672 0.6185768321497797 0 1 0
1483 2 16.648896302590895 29.244177904977235 29.658088091938676 0 0 0
7597 1 15.292206574084885 8.299880404995193 0.615398408034708 0 1 0
36873 1 1.1891244210152194 10.191544883435208 2.8414506835881923 1 1 0
7778 1 3.782092907602205 11.054593265465467 2.808027559348306 0 1 0
353 2 3.81498761271084 13.74711832042798 2.78084549010155 0 0 0
36887 2 1.2145418406354522 12.912990877302457 2.8165865145857336 1 1 0
7609 2 5.073642182803152 12.913605641552277 0.619408353723889 0 1 0
7779 1 5.059191500930056 12.87190223386019 5.073109656296809 0 1 0
7781 1 6.377523543371928 11.983638901916066 2.838141096986612 0 1 0
7777 2 9.012322780758307 12.919024810293367 2.9084771955278605 0 1 0
7606 1 7.618740605039502 11.096318917523444 0.6670550019076904 0 1 0
7610 1 10.218986756361547 12.003953422668598 0.6600733154384474 0 1 0
176 2 7.60128811098918 13.840457892446105 0.6652342477521505 0 0 0
180 1 10.172578504128548 14.790847773473176 0.6615178777979146 0 0 0
7776 2 7.638467954057068 11.127525912708657 5.072870173690931 0 1 0
355 1 10.24605360495561 14.686252341053722 5.080989996083149 0 0 0
7784 1 11.517587485323988 11.04752201498543 2.877274666903803 0 1 0
7787 1 14.042310347657159 11.96051285871098 2.835419592177207 0 1 0
359 2 11.523821781190524 13.80195843242047 2.874917515104696 0 0 0
362 1 14.08806406915008 14.739071542278065 2.8621200015066974 0 0 0
7785 2 12.792394978184154 12.899954198402805 5.1155393344842475 0 1 0
7788 1 19.17962722920471 11.060707714403858 2.8663302356098823 0 1 0
7783 2 16.59371742358123 12.878825592041146 2.848935337265727 0 1 0
363 2 19.190357963246964 13.797451986613169 2.876882551240549 0 0 0
7786 1 17.901288390101584 11.971975515662587 5.092763014143347 0 1 0
7612 2 15.297274123537479 11.00897398598875 0.6343570879841564 0 1 0
368 2 3.8122350140109833 16.535268947544864 2.8638210746485697 0 0 0
29974 1 1.2853957720630151 18.35461399630009 2.924512744306765 1 0 0
29960 1 1.2427236727093292 15.615114611002163 2.8412823522010378 1 0 0
29963 1 2.469524567337974 14.714467876603797 5.049863029927202 1 0 0
29814 2 2.5096831902863865 17.48723311162904 0.6390823612415473 1 0 0
179 1 5.04174280513963 15.648673694070746 0.6364731501924256 0 0 0
356 2 6.296786658738434 14.710829433998466 2.8577851362924505 0 0 0
191 2 7.6079404346059905 16.61911637139843 0.7190559211466847 0 0 0
352 1 8.939045534193651 15.626334156039233 2.851873248543205 0 0 0
371 1 6.358780093789714 17.48043759620101 2.9036734205523542 0 0 0
367 2 8.981663451620548 18.39115455400129 2.8760503785176503 0 0 0
195 2 10.14501477552497 17.506333350512982 0.6826021249638905 0 0 0
366 2 7.734699970770053 16.523247648910388 5.055578267250869 0 0 0
374 2 11.512188681045512 16.57704123524031 2.845195927993033 0 0 0
377 2 14.10166156787416 17.481176231725033 2.911589941736853 0 0 0
200 1 12.764604752327624 18.353681707018794 0.6576577795916095 0 0 0
185 1 12.770383490196677 15.638399546399427 0.6314429825880554 0 0 0
358 1 16.621945180443117 15.635586806367035 2.876000761858558 0 0 0
378 1 19.193794719264382 16.559400910087604 2.9201208902306797 0 0 0
373 2 16.659840615558156 18.396679505654845 2.8637491186669055 0 0 0
197 2 15.344971889369848 16.56546388547469 0.6439000983698705 0 0 0
361 2 17.92961622201505 14.703051155007339 5.078872756135993 0 0 0
29828 1 2.5456046267793337 20.200244523645637 0.6387844183669902 1 0 0
209 1 5.074137405553085 21.07614948974735 0.6447427161180908 0 0 0
383 2 3.872324546559946 19.285172895407168 2.934823134202918 0 0 0
398 2 3.753669178323242 22.04329490295401 2.8401734378428376 0 0 0
29988 2 1.2336037697221833 21.05808532809648 2.8761708239147947 1 0 0
29842 1 2.4924437601487646 22.942564805794213 0.6299199691258283 1 0 0
206 2 7.644104228598583 19.27462239023539 0.650275990178778 0 0 0
386 1 6.394014423122572 20.191040502894133 2.899255804289022 0 0 0
382 1 8.930570445010442 21.130559147943053 2.8569716005265353 0 0 0
401 2 6.330360169839972 22.92802267553605 2.94980670768561 0 0 0
225 2 10.233895876785773 22.928499782006227 0.6692258257364592 0 0 0
221 2 7.594210138420611 22.04409053492883 0.6990767293249485 0 0 0
389 1 11.505115688697906 19.278989849599192 2.8603723174485074 0 0 0
392 1 14.07232205990736 20.20155404036199 2.903930229590693 0 0 0
404 2 11.505247138548025 22.017707198493717 2.8727124050486643 0 0 0
407 1 14.10711116780259 22.949629951130024 2.9026841260706138 0 0 0
215 2 12.757854368157144 21.118555959230285 0.6695889668835241 0 0 0
230 2 12.789594785830653 23.732195265659005 0.7290945512814169 0 0 0
393 2 19.189845326130474 19.325176551478673 2.866102266209506 0 0 0
388 2 16.635407110763317 21.085963719987458 2.8535846281894806 0 0 0
408 1 19.24197164024622 22.013919664940563 2.864723326701352 0 0 0
391 1 17.972225698132643 20.186593498312387 5.115608002927577 0 0 0
231 2 17.982719337848355 22.898463316382948 0.6500679554222114 0 0 0
216 2 17.9550296005184 20.17467432902956 0.6479470924672219 0 0 0
212 1 15.326275512796126 19.301229570619224 0.6897798614108107 0 0 0
224 1 5.072265241392228 23.83202588864496 0.6636502844731499 0 0 0
30002 1 1.2203473046466609 23.825810019978075 2.8505727630530315 1 0 0
30016 2 1.2020741307259497 26.594057455698074 2.8797062387692267 1 0 0
413 1 3.80387351045338 24.790984367154635 2.881324854507173 0 0 0
428 1 3.7966382750567815 27.512634817202102 2.892674900878511 0 0 0
29856 2 2.4995483764546815 25.688906432310713 0.6152850407874586 1 0 0
239 2 5.061260329746513 26.557479816495928 0.645564640430956 0 0 0
251 1 7.66134015845256 27.457048937097916 0.6867710879930873 0 0 0
397 1 8.934179379095134 23.841717543553433 2.8721240885949273 0 0 0
416 2 6.3588967884228165 25.64956089640419 2.918125343069921 0 0 0
412 1 8.965029670674202 26.558195806699857 2.868204232614154 0 0 0
236 1 7.672614276424363 24.744625054088328 0.6550023545361315 0 0 0
240 2 10.260490606275033 25.634749983056075 0.6183899322290088 0 0 0
245 1 12.7994581619978 26.549628302948104 0.6273613396078884 0 0 0
419 2 11.525429287347015 24.713375622838353 2.8841127312123764 0 0 0
422 2 14.054531967619424 25.67945672517089 2.9014737674728424 0 0 0
434 1 11.539682706062411 27.525464079065646 2.893464170324421 0 0 0
403 2 16.716739007126733 23.762545393859696 2.8233173155396742 0 0 0
1485 2 12.783726972471808 29.267547178887327 31.83924208378988 0 0 0
242 1 15.388003837335924 24.708628807348624 0.6358588168245068 0 0 0
423 1 19.28513299220862 24.725135916465476 2.8401447971968437 0 0 0
418 2 16.653618421842623 26.538628878518054 2.8622896813516054 0 0 0
438 2 19.215145431524846 27.483939956273748 2.8241733378236953 0 0 0
421 1 17.979359695330924 25.61021737864885 5.071066337827445 0 0 0
1487 2 14.059386172216378 28.38145641284003 29.66773648095712 0 0 0
254 2 5.071117255839363 29.31499888632762 0.6523827124722785 0 0 0
29870 1 2.538931197673122 28.432362532194162 0.6151689977744108 1 0 0
443 2 3.7434768370207765 30.26369276931058 2.8878847771270695 0 0 0
30044 2 1.2203741485750141 32.07117545697581 2.7859972548199834 1 0 0
30030 2 1.1819979801927247 29.360761232825727 2.8031097141095573 1 0 0
269 1 5.0498473006252835 32.070144318556856 0.6251034081219033 0 0 0
431 1 6.318281456454589 28.40075528067227 2.9122485467353774 0 0 0
255 2 10.22590572094176 28.376125870083552 0.6369959856483954 0 0 0
270 1 10.226324707722442 31.130096218873597 0.660333361231868 0 0 0
427 2 8.933713081679826 29.33300373680128 2.892384121444433 0 0 0
446 1 6.322238712659889 31.157412229119267 2.8868733087983403 0 0 0
442 2 8.86146189199427 32.07014422629287 2.8805353766071446 0 0 0
266 1 7.66226313503086 30.231507464094882 0.64771153946747 0 0 0
260 2 12.805187905587875 29.309341897223998 0.6353471654403919 0 0 0
437 1 14.08275025066371 28.409872030695446 2.8899575171769194 0 0 0
449 1 11.501389588826557 30.288088271073487 2.8695541564869758 0 0 0
452 1 14.072243042084674 31.190384561168486 2.8705558186317837 0 0 0
450 2 12.83856434725337 32.121120919782044 5.118507199468548 0 0 0
1502 1 14.103465443003564 31.105920563235642 29.661976019870515 0 0 0
433 1 16.648784744547307 29.31678839281339 2.864759684125002 0 0 0
453 2 19.170571844981154 30.296571603805678 2.79066214376533 0 0 0
448 2 16.6558680555658 32.10812690039034 2.7831351954322363 0 0 0
436 1 17.951749534651952 28.39083873420247 5.044567097406765 0 0 0
272 2 15.34799878738077 30.215860761793454 0.6764831768666586 0 0 0
7719 1 5.073083595458804 1.9368103815414415 5.0551951115708285 0 1 0
36848 2 2.5116398788180807 3.8250657671238057 5.041367110273694 1 1 0
36990 1 1.2209828137442464 1.9609703784557686 7.243241349099093 1 1 0
7903 1 3.8115274614727572 2.8550464388936656 7.271570633395835 0 1 0
37004 1 1.2187154290719555 4.710663001807837 7.272570761020241 1 1 0
7918 1 3.7865723648639826 5.653403294070918 7.314906225488682 0 1 0
7889 1 5.085197278870414 1.9066884131962365 9.520813559954242 0 1 0
7902 1 8.94567991366011 4.732418493005627 7.28497894743754 0 1 0
7906 1 6.41130397457965 3.7971068238057546 7.281637218730365 0 1 0
7887 2 8.993766456786476 1.9785942817876845 7.272246416777861 0 1 0
7916 2 7.67642733646696 5.596154755659673 9.513594151460302 0 1 0
7905 1 10.23274180076885 3.7765123992755676 9.555172989393789 0 1 0
7740 1 12.711951523208027 4.684796874800215 5.086081330557934 0 1 0
7912 2 14.041781425323924 3.7823856164759935 7.294475817678841 0 1 0
7924 2 11.424565845261588 5.62516271513285 7.339660530180241 0 1 0
7909 2 11.54158294753517 2.9071437106022238 7.331139189177479 0 1 0
7895 2 12.806472577972881 2.001776911633238 9.47034567208329 0 1 0
7752 1 15.307739396588458 5.544857017701393 5.071002521350865 0 1 0
7741 2 17.88811922040706 3.7996006072648356 5.061716201696297 0 1 0
7913 1 19.19426258336108 2.8597090837285095 7.370992880644416 0 1 0
7928 2 19.202823726584423 5.539497935092028 7.354324287890114 0 1 0
7908 2 16.628088377185037 4.711736067089823 7.340304060409674 0 1 0
7893 1 16.634508612733903 1.960847695735945 7.345887733477179 0 1 0
7907 1 15.378348371623078 2.8219923678963235 9.508074463523654 0 1 0
7922 2 15.36113794139077 5.586421362487704 9.53821807799555 0 1 0
36876 1 2.4667846459597174 9.259261496309268 5.07361090044335 1 1 0
36862 2 2.4725975441596604 6.522523489514287 4.996309614083879 1 1 0
7749 2 4.991613502123842 7.463351809512051 5.112528222306414 0 1 0
7933 1 3.744101873388898 8.332730497142563 7.301522776290713 0 1 0
37018 2 1.1834846306006903 7.439786879086256 7.270951224014952 1 1 0
37035 1 2.4357692633248336 9.262451027079443 9.511539454572926 1 1 0
7934 2 4.970123412466997 10.127588902620614 9.546167998872264 0 1 0
7765 1 10.22300862069692 9.26909894343496 5.066234096181166 0 1 0
7921 1 6.318825995762912 6.541349479786167 7.304823160779227 0 1 0
7917 2 8.911788790490748 7.510495787789834 7.250546730306348 0 1 0
7936 1 6.318477876789522 9.224931895081491 7.311515391654609 0 1 0
7931 2 7.650912531752689 8.350562117193103 9.535596710725754 0 1 0
7932 1 8.9508107490918 10.216272132448035 7.309409273413242 0 1 0
7767 2 15.239748190582622 8.22235125252134 5.050144663757125 0 1 0
7770 1 12.765379456657952 10.133802941274885 5.105116196483596 0 1 0
7927 1 14.038095716362264 6.500770338322632 7.313576204297138 0 1 0
7939 2 11.47862047500852 8.336366852408888 7.314591141259919 0 1 0
7942 2 14.072378575664796 9.235557911185351 7.321629247514217 0 1 0
7925 1 12.82730814497834 7.435332965109363 9.52291469098735 0 1 0
7771 1 17.893282257309703 9.223475157501351 5.079626018204385 0 1 0
7756 2 17.961055293764744 6.5218570368878455 5.113364244262147 0 1 0
7923 1 16.600593375697272 7.404449912633295 7.2943389306745035 0 1 0
7943 1 19.229477763849523 8.334940603987837 7.33633128191644 0 1 0
7938 2 16.659297879334567 10.131876234043638 7.3029708357908385 0 1 0
7937 1 15.378536899090534 8.345049780036325 9.52462855773123 0 1 0
7926 2 17.930121996980475 6.504301488621154 9.54690781882434 0 1 0
7941 1 17.939221738758167 9.24303859731722 9.550747009248408 0 1 0
36890 2 2.4454414699069975 11.97319442716588 5.076923164923069 1 1 0
37032 1 1.1471424396600836 10.156723236173258 7.2577348578620215 1 1 0
37046 2 1.16643426580118 12.874323468961942 7.268177592332747 1 1 0
7948 2 3.7694148341148286 11.076923918955849 7.288669426335148 0 1 0
528 1 3.7809256979730423 13.78296996867621 7.275420093079563 0 0 0
37049 2 2.4529738500551925 11.968411396786513 9.417230574600735 1 1 0
30126 1 2.508145968823038 14.686116984947535 9.490071765476605 1 0 0
351 1 7.686887605703625 13.800935021843653 5.1021174235782825 0 0 0
7780 2 10.250554342412816 11.97936010334053 5.106686428116516 0 1 0
7951 2 6.364242913054964 11.929495276358365 7.292456191525516 0 1 0
7947 2 9.000164155217252 12.95299875156319 7.326292499178472 0 1 0
7954 1 11.540412120073738 11.083864989147033 7.353485255979706 0 1 0
7957 1 14.11146102477429 11.999925662127065 7.359872474908176 0 1 0
534 2 11.564618511855404 13.805649184509297 7.3362806767029625 0 0 0
537 2 14.12539931924644 14.72829927153044 7.346507812168853 0 0 0
7955 1 12.83088904042118 12.911243739360192 9.591288810575506 0 1 0
7782 1 15.298151965560386 11.038789069027315 5.091438860940617 0 1 0
357 2 15.369002105588734 13.824941411979028 5.1241243019894265 0 0 0
7958 2 19.256062181722307 11.136043459258673 7.347407367432118 0 1 0
7953 1 16.689501538952776 12.889164300915388 7.348314396131039 0 1 0
538 1 19.286332400321225 13.819988091156164 7.327033577599407 0 0 0
536 2 18.012543831543745 14.69660069258688 9.537418395776172 0 0 0
354 2 5.091771076567338 15.565338940902377 5.088548029895947 0 0 0
369 1 5.1401615169367565 18.321762663092805 5.1184657489939696 0 0 0
29977 1 2.5137967476369107 17.45018316300522 5.089421767290909 1 0 0
543 2 3.79217795738412 16.523140787321978 7.290701965967471 0 0 0
30137 1 1.2052330648583929 18.3735599012604 7.318367388889018 1 0 0
30123 2 1.1572533103484244 15.630410129531182 7.292260364713478 1 0 0
544 1 5.125708030463889 18.33490597623515 9.531568266004339 0 0 0
531 1 6.4173855743568105 14.691364737067227 7.303413997327533 0 0 0
370 2 10.292046234073068 17.371520062456806 5.027316438828216 0 0 0
527 2 8.970533273617738 15.642882234815822 7.382490056227925 0 0 0
546 1 6.388788971765182 17.430891077833895 7.30914997372418 0 0 0
542 1 8.956249918185817 18.33393012406301 7.288394553140973 0 0 0
545 1 10.280249901599332 17.462764300564356 9.556439560527439 0 0 0
530 2 10.22970739537287 14.667662233623206 9.519614237418393 0 0 0
541 2 7.687407516979512 16.512951160136748 9.546282713435282 0 0 0
375 2 12.824467191077446 18.356443608642916 5.091874160859927 0 0 0
360 1 12.80917635407097 15.612508824136151 5.109887589312437 0 0 0
549 1 11.573131754321164 16.51328436159716 7.312743010514564 0 0 0
552 1 14.139953823121381 17.469037958397838 7.337610549708886 0 0 0
535 2 12.853022941907236 15.603889782199369 9.539273233312922 0 0 0
387 2 15.418723392006573 19.297245363732195 5.093635835491818 0 0 0
372 1 15.402275467872917 16.5592453697923 5.122729261860861 0 0 0
376 1 17.97775691147911 17.465187899636028 5.109471244733172 0 0 0
533 2 16.68511523029372 15.59562763458482 7.3465238256767735 0 0 0
553 1 19.29540662509702 16.550569162322248 7.316772560083468 0 0 0
548 2 16.72845095622729 18.359411576365805 7.330164619294084 0 0 0
551 1 18.017482924085815 17.439382830981717 9.54109755895308 0 0 0
384 1 5.0940069511445305 21.072282493727908 5.096332972817804 0 0 0
558 2 3.7919461734222737 19.24830066746057 7.323161119400924 0 0 0
30005 1 2.5170495283552112 22.938639186677936 5.101622276085196 1 0 0
29991 2 2.507728082362793 20.23283592145375 5.1257675826653255 1 0 0
573 1 3.812609855439437 21.986311061031092 7.310701858223033 0 0 0
30151 2 1.206344803078417 21.111476344470898 7.301897580142038 1 0 0
400 2 10.268356487347269 22.949705109409784 5.072572964624159 0 0 0
385 1 10.265348842744189 20.179302173676103 5.04427379379601 0 0 0
381 2 7.7109389388208065 19.263751847050298 5.127947623736928 0 0 0
396 2 7.637234691922405 22.003970076077586 5.126835198024349 0 0 0
561 2 6.393823792015335 20.188204298306353 7.303088584044546 0 0 0
557 1 8.974340460059965 21.091047432650257 7.331116038195862 0 0 0
576 2 6.374726987143498 22.916899342241233 7.322402096898484 0 0 0
560 1 10.268261336224613 20.187665801462654 9.573799632222247 0 0 0
564 2 11.508462499207663 19.260216191864213 7.3352507046522 0 0 0
390 1 12.84171817086073 21.099697660670152 5.126454699983219 0 0 0
567 1 14.127823729039665 20.17401493246165 7.3498954503673515 0 0 0
579 2 11.575777239326309 21.985096064482164 7.323953163581968 0 0 0
582 2 14.17645719209621 22.928619934892517 7.405685726858112 0 0 0
565 1 12.872671084255911 21.07825256248661 9.565188522537806 0 0 0
568 2 19.34276268172281 19.282772191795328 7.336355446588554 0 0 0
402 2 15.399334845935623 22.027516017755058 5.0851564221542285 0 0 0
406 2 18.009986466234203 22.89463889536433 5.080490407353267 0 0 0
563 1 16.694940722209758 21.075182668312294 7.326813971996679 0 0 0
583 2 19.27851830166609 21.966924235965553 7.3359659808325715 0 0 0
581 1 18.01793091542366 22.904142644473012 9.588969750439249 0 0 0
414 2 5.055811918940619 26.486552380846664 5.133967510498526 0 0 0
30019 2 2.497918116607543 25.636929816404376 5.0673657989385 1 0 0
399 2 5.124738844421612 23.80996695789569 5.1696471272500135 0 0 0
30165 1 1.1909996652363988 23.84303661120653 7.302936156195939 1 0 0
588 2 3.8311180049260583 24.72458079225852 7.314258245366863 0 0 0
603 1 3.770009080757482 27.4742254128372 7.306975809408757 0 0 0
30179 1 1.215697339010588 26.565200413746712 7.295378637083044 1 0 0
30182 2 2.4864040437653467 25.67996179826967 9.521165244778626 1 0 0
415 2 10.298231612579261 25.687211825554268 5.097017370994238 0 0 0
426 1 7.636876602977803 27.44598380959076 5.115824188412202 0 0 0
411 1 7.694410783638925 24.713715561884428 5.120445854231234 0 0 0
572 1 8.956211039329206 23.832811703423438 7.288470840662122 0 0 0
591 2 6.31038457845881 25.569174633474837 7.3123959815865245 0 0 0
587 2 8.980730068830104 26.568625364204227 7.3242493449849375 0 0 0
405 1 12.860489558588432 23.85059107334542 5.14010516298596 0 0 0
420 2 12.825989652601919 26.583692858216665 5.171127971108995 0 0 0
594 1 11.566183743355328 24.7326322200492 7.322451484197001 0 0 0
597 2 14.144911881007541 25.653965351961332 7.419404972652302 0 0 0
609 2 11.609854312129126 27.502816897185355 7.3206540427035325 0 0 0
578 1 16.74646989826191 23.79343502291954 7.375372846356887 0 0 0
417 1 15.427221774828196 24.762909427204168 5.133641510099232 0 0 0
432 1 15.377960000414188 27.45762060176604 5.1368500843737515 0 0 0
598 1 19.25597102769363 24.75059516404618 7.313743815316283 0 0 0
593 2 16.702822804611714 26.539888195686125 7.368414218654262 0 0 0
613 2 19.262448580302753 27.497671730789158 7.280283785565399 0 0 0
596 2 17.948136306900068 25.64252559481943 9.605270187955409 0 0 0
30047 1 2.4780474339056515 31.134904660311523 5.052148267597519 1 0 0
30033 1 2.50402758849476 28.39834928389862 5.0527203807856935 1 0 0
444 1 5.051969434317713 32.08131359114875 5.061129446182396 0 0 0
429 2 5.090386563855363 29.309974467343988 5.110433215693798 0 0 0
30193 2 1.2152923620194358 29.308001120491234 7.347942637551233 1 0 0
618 2 3.817251926726503 30.22424748928317 7.302995228789111 0 0 0
30207 1 1.2155771148762418 32.025528640797816 7.293226435807341 1 0 0
606 1 6.3742559519845345 28.336429686092423 7.319659579326868 0 0 0
430 1 10.230645996321789 28.435420050396797 5.140541387336505 0 0 0
441 2 7.648867077378122 30.263734530092623 5.114353391292733 0 0 0
445 1 10.235046338552523 31.210982293027858 5.112903037685657 0 0 0
602 1 8.984984925158935 29.31432752989199 7.336449023707211 0 0 0
621 2 6.344000768341123 31.097426516178917 7.286155865057656 0 0 0
617 1 8.951510892853289 32.06215596614012 7.326640348184725 0 0 0
616 2 7.6474005877127365 30.20286021863195 9.523865477290643 0 0 0
435 2 12.786831313012106 29.361786608001765 5.1420970850778085 0 0 0
612 1 14.150472638924617 28.413925776346375 7.364916631856859 0 0 0
624 2 11.549109348925226 30.24785399490481 7.340157782396028 0 0 0
627 1 14.07955953423891 31.16734288085041 7.343441328762546 0 0 0
451 2 17.950236436546817 31.137122830370796 5.025702278926063 0 0 0
447 2 15.38433307679253 30.189104612243316 5.133169424128912 0 0 0
608 1 16.709630479922286 29.32546320265221 7.347131147049779 0 0 0
628 1 19.269023600913357 30.245729290916625 7.305223481893275 0 0 0
623 2 16.70693390218957 32.112899668024795 7.244578926458487 0 0 0
611 1 17.96495399864214 28.4213732684797 9.55893177762713 0 0 0
626 2 17.90659466352791 31.153792873699224 9.503805402911139 0 0 0
37007 2 2.5047843156707006 3.8016980403964507 9.505197418634364 1 1 0
7904 2 5.1006890790476245 4.679034160880504 9.545834016444754 0 1 0
37149 1 1.2193322503835586 1.9361430097671455 11.735241792595318 1 1 0
37163 1 1.2284629318427125 4.727510659870247 11.795176851427636 1 1 0
8088 1 3.8092564498543715 5.613933250798466 11.778437758055057 0 1 0
8073 1 3.824052203010698 2.8302317739999503 11.760158337572804 0 1 0
37166 2 2.5478799517002666 3.7548959291680677 14.015719703724727 1 1 0
7901 1 7.680001419200811 2.8247481427805905 9.533856400974903 0 1 0
8057 2 9.03190952553793 1.8881075899573068 11.731616253439208 0 1 0
8072 2 8.958621312598577 4.66118547169091 11.792726423408363 0 1 0
8076 1 6.387613622776461 3.7385878355990005 11.783585851392832 0 1 0
7910 2 12.812464151728836 4.654434450634422 9.478943439020275 0 1 0
8094 2 11.530948160589235 5.587864748447093 11.785529412150192 0 1 0
8082 1 14.078471221732224 3.754697657234257 11.738843287438216 0 1 0
8079 1 11.543927497664669 2.8818511746871858 11.745984522485642 0 1 0
7911 1 17.96543024468866 3.786960680433522 9.600687677206809 0 1 0
8098 2 19.268765273021497 5.588046537353225 11.779198284682671 0 1 0
8078 1 16.68166744502923 4.676443472812191 11.784446984790696 0 1 0
8083 1 19.325780478644354 2.8356768627920017 11.890400127954901 0 1 0
8063 2 16.707077121440363 1.928395720904893 11.813000135561426 0 1 0
8092 2 15.343071907246646 5.599636155893247 13.991857255389933 0 1 0
8077 1 15.32421167871651 2.8645047000307966 14.002015422297598 0 1 0
8081 1 17.939626002621836 3.78813919521106 14.02846356586255 0 1 0
7919 2 5.0969238677643975 7.386162236869484 9.568647220235281 0 1 0
37021 2 2.495495024456039 6.540112111677974 9.567932616991508 1 1 0
8103 1 3.7973423568971687 8.359961832167786 11.77278183399883 0 1 0
37177 1 1.2160776388257482 7.438057624020468 11.800602088966512 1 1 0
37191 2 1.2433134096036065 10.092589850929205 11.811509872510664 1 1 0
37180 2 2.5115962942005066 6.532157682348143 14.033307481194388 1 1 0
7935 1 10.259286630038876 9.271118280660108 9.572792981221639 0 1 0
7920 1 10.236366248876045 6.548477974388658 9.55546809910694 0 1 0
8091 1 6.388993740930772 6.5028031936065505 11.774919113688215 0 1 0
8087 1 8.975352204767956 7.4196934542334 11.758317978095363 0 1 0
8106 2 6.387603538332381 9.293786682996046 11.762966997471544 0 1 0
8102 1 8.985322193144842 10.149791080461064 11.774057749183356 0 1 0
8101 2 7.677603008161178 8.297424067179987 13.962660412389653 0 1 0
8097 1 14.058249612756484 6.516529252641989 11.780425357873098 0 1 0
8109 2 11.528527003173926 8.394267135847635 11.731072128886444 0 1 0
8112 2 14.080479664464896 9.274636345748299 11.778670797281364 0 1 0
7940 2 12.900388724844838 10.247669991474218 9.58237603103901 0 1 0
8093 1 16.60128032572733 7.424333536787061 11.823017013412407 0 1 0
8113 1 19.245246613142115 8.323732857317804 11.782829287325452 0 1 0
8108 2 16.678508317369364 10.175767622441017 11.801855665397756 0 1 0
7949 2 5.052400854710118 12.822713816594828 9.499924833662359 0 1 0
8118 1 3.7526621501392787 11.075130548617732 11.781535538340286 0 1 0
703 1 3.756417930901797 13.770768548520728 11.714784544273058 0 0 0
37205 2 1.1850507598254538 12.860863373505977 11.74504700191352 1 1 0
30289 1 2.5078789087142663 14.694936573535166 13.97880895015138 1 0 0
37208 1 2.4593580547207696 11.978806894815884 13.992160883260942 1 1 0
7946 1 7.6257719542170355 11.087449117448985 9.53236158747726 0 1 0
526 1 7.646678264269792 13.81707143790699 9.502818870509655 0 0 0
7950 2 10.209267435651203 11.985279949511831 9.566458798552635 0 1 0
8121 1 6.381676347747031 11.972816746879328 11.735738866536936 0 1 0
8117 2 8.986539544016562 12.895245801250372 11.746790177489816 0 1 0
8116 1 7.715107278842786 11.059448346371095 13.957898718562271 0 1 0
701 1 7.697358079645774 13.799551977147495 14.000702619344844 0 0 0
8124 2 11.564102211852594 11.07454418459153 11.804160224296794 0 1 0
8127 1 14.145579926428312 12.004677556107342 11.814554928932866 0 1 0
709 1 11.543744609991446 13.816269128215101 11.77272502774844 0 0 0
532 2 15.398816587648136 13.847383518485882 9.548275136425442 0 0 0
7956 1 17.99615888455387 12.016954219881095 9.592232716044807 0 1 0
7952 2 15.427406621041614 11.051220942160018 9.589277940793234 0 1 0
8128 1 19.281711743713924 11.090341665108754 11.828136435522541 0 1 0
8123 1 16.714302138310938 12.924520450793947 11.803909424275925 0 1 0
713 2 19.31014664383939 13.848865379377083 11.803689995030854 0 0 0
707 2 15.420053333641508 13.81789317805125 14.044763981978903 0 0 0
8126 1 17.969130296566764 12.005844516028445 14.047525291307048 0 1 0
30140 1 2.5009747328728835 17.414585652276678 9.527140282401056 1 0 0
529 2 5.082666454350844 15.603008054283775 9.505288978618404 0 0 0
30286 2 1.171150508227468 15.576244948275697 11.758886372472027 1 0 0
718 2 3.799662367648058 16.495171249191024 11.729496716677183 0 0 0
30300 1 1.2340072274025273 18.32213059951935 11.722863615220856 1 0 0
719 1 5.089400633346406 18.323440855989713 13.973111670424709 0 0 0
30303 1 2.5232373651590665 17.402064826149036 13.94972348051477 1 0 0
706 1 6.394010754205644 14.674510598831988 11.723020861993211 0 0 0
702 2 8.981784813664994 15.60383646198259 11.734683722034458 0 0 0
721 1 6.360839679311342 17.430821173234815 11.759577579025331 0 0 0
717 1 8.958720197587224 18.351679363430467 11.817741904265775 0 0 0
712 2 14.123322248734288 14.728924127821513 11.795077724622372 0 0 0
550 2 12.860363390759927 18.365427983330772 9.562236621683114 0 0 0
724 1 11.541922579128958 16.538336398072747 11.754654131036226 0 0 0
727 1 14.119923174763994 17.45488742957072 11.786899872680971 0 0 0
547 1 15.437465543452165 16.549521445153967 9.580035851111234 0 0 0
708 1 16.705140578032385 15.594530737966563 11.783128604777753 0 0 0
728 1 19.28120541442051 16.533587044907 11.761773828926135 0 0 0
723 2 16.722217733536045 18.357719649351925 11.801549081757289 0 0 0
559 1 5.078334070024271 21.07455589402532 9.53446983156712 0 0 0
30154 2 2.4898959175839988 20.159452654008092 9.52254236900287 1 0 0