LAMMPS data file via write_data, version 2 Aug 2023, timestep = 50056, units = metal

38640 atoms
2 atom types

0.730860596943214 78.14270912305705 xlo xhi
1.1581823527625528 127.11750045723964 ylo yhi
0.5802884603660996 63.172458929633564 zlo zhi

Masses

1 92.90600000000001
2 50.942

Atoms # atomic

4 1 1.9969642180732337 3.0893499084917386 2.6869028781772215 0 0 0
1 1 4.64955512415771 1.2233453087572466 2.7397732231892262 0 0 0
61 2 4.633605936963265 3.9834120987629724 2.711940694216155 0 0 0
2 1 5.93189696304811 3.0464483878655964 0.5916814270796571 0 0 0
5 1 7.183605673615167 2.1353479456206435 2.724331372363993 0 0 0
10 2 9.755627281142521 2.9946501271834647 2.7418897955009394 0 0 0
67 2 12.320102993460456 3.8928499535522727 2.749942544463307 0 0 0
12 2 11.034304290859303 2.0727179161696228 0.5895453298665664 0 0 0
8 2 13.630976908458406 2.9213734095153816 0.631434016595832 0 0 0
11 2 14.841856560219474 2.001821892158217 2.804186370442203 0 0 0
16 1 17.477851135347194 2.9188270266916554 2.768902142115537 0 0 0
64 2 1.9927799906101633 5.841171889926359 2.765892219469286 0 0 0
16816 2 17.433191394917667 13.920531979900641 29.778021867161772 0 0 0
62 2 5.886874279121448 5.753250203035379 0.6747422123617435 0 0 0
121 2 4.634439507047611 6.662913390347373 2.824600203218276 0 0 0
65 2 7.189475329713776 4.913048070069395 2.7680949759018505 0 0 0
70 2 9.682916403622237 5.728585654053733 2.7228718968043037 0 0 0
129 2 8.457114389515484 6.620969440770111 0.6338790532556252 0 0 0
127 1 12.29935926733718 6.599044743041299 2.8369248718442384 0 0 0
71 2 14.902468080532612 4.747571074849013 2.762174079994705 0 0 0
135 1 16.20614325604581 6.530117737025048 0.5866609589094591 0 0 0
76 1 17.505164434979037 5.738932733172659 2.808062223545855 0 0 0
124 1 2.0402452110370537 8.52455836882126 2.816470254364395 0 0 0
122 1 5.873264968281466 8.490327502810162 0.6236145753069914 0 0 0
125 2 7.164746248829077 7.571038045531772 2.8350393719496085 0 0 0
181 2 4.658228645917021 9.428587540125166 2.8791044659873433 0 0 0
185 2 7.109247834538202 10.277899242649557 2.9415985311871333 0 0 0
130 2 9.656010750961228 8.420785000684214 2.8863742869374946 0 0 0
189 1 8.439067753774516 9.349508748866237 0.6174080907061736 0 0 0
132 2 10.93769342100362 7.5270012744733945 0.6781689318309445 0 0 0
128 1 13.572616030356006 8.401778398162945 0.5996694678250103 0 0 0
187 1 12.292123512204496 9.325978085153015 2.880898398067675 0 0 0
192 1 11.00112498152696 10.271498462550598 0.5975697107022143 0 0 0
131 2 14.900263030515465 7.503785924407719 2.849343294269393 0 0 0
191 1 14.944534953605936 10.25170810294658 2.9054055430626486 0 0 0
195 1 16.2364214722894 9.312502587848208 0.6460643456903181 0 0 0
136 1 17.520310960040312 8.423451521128543 2.8933006895775746 0 0 0
138 2 18.868691685884464 7.526739494096001 0.6350210608053941 0 0 0
198 1 18.803741903436272 10.286541806430543 0.616585706165437 0 0 0
184 1 2.0266080381877374 11.106678010325867 2.859550165865899 0 0 0
182 1 5.848969486158082 11.174266685718719 0.6392655480122256 0 0 0
241 2 4.606994257719088 12.116273552763387 2.8711323834211036 0 0 0
245 2 7.115072176090612 13.045223689477734 2.9440788753809723 0 0 0
190 1 9.665603877568964 11.221506518483986 2.908332189609145 0 0 0
249 1 8.446319942420775 12.04435758521697 0.670354899555493 0 0 0
66 2 3.3107300303123726 4.897201454664811 0.5850607934871476 0 0 0
247 1 12.234589935319827 12.09913481408866 2.9044397150928183 0 0 0
252 2 11.023239056132708 13.073428231447219 0.6144623567435684 0 0 0
255 1 16.224576287850688 12.167961140618415 0.6114955425672332 0 0 0
251 1 14.947100071469539 13.07435273291399 2.8968352710395875 0 0 0
196 2 17.53231716816252 11.138065258937326 2.9478828961652437 0 0 0
258 1 18.813524786448475 13.069722098616444 0.6463271214640554 0 0 0
244 1 2.0782570843589174 13.939366230461188 2.832182799062257 0 0 0
304 1 1.9801549876127258 16.76271203542308 2.7969574586995463 0 0 0
242 1 5.8557462863139556 13.88755089196855 0.6239728050948281 0 0 0
301 1 4.623056484037598 14.858321498856668 2.892486127688339 0 0 0
302 2 5.835308610527905 16.622895808590854 0.6740944564810084 0 0 0
305 1 7.148391540987021 15.732275161179594 2.915340638370384 0 0 0
250 2 9.67501087471121 13.929176268867618 2.9015511083755205 0 0 0
309 2 8.51781231947252 14.790291621508128 0.6257841306721995 0 0 0
310 1 9.726504172439423 16.668816275628195 2.8950555039498176 0 0 0
307 1 12.278339331097564 14.880994384849942 2.8833559632345174 0 0 0
308 2 13.60497557267977 16.663754718659142 0.6229416500221387 0 0 0
312 1 11.0475055322565 15.778328531128414 0.6065292652152409 0 0 0
311 1 14.954148728845022 15.800327363882746 2.912651853751902 0 0 0
315 1 16.234092386466443 14.903544036450622 0.616032062252359 0 0 0
313 2 20.031472349183822 14.845512263858213 2.9339148270756743 0 0 0
256 2 17.578436033673857 13.942566615719084 2.8900468598821463 0 0 0
316 2 17.536637434979486 16.551177874427747 2.8750079546728307 0 0 0
318 2 18.860758642444427 15.805149799352431 0.6191272101244809 0 0 0
2766 1 3.334106066441726 2.1486049929558124 5.056925374408018 0 0 0
2764 1 2.0386420491279553 3.0128040408305803 7.283102899662241 0 0 0
2762 1 5.919776824637207 3.0560488039127818 5.052973798471067 0 0 0
2821 1 4.594790491724287 3.957965372332372 7.326402088780878 0 0 0
2829 1 8.483119644874824 3.93758673206986 5.010005594182908 0 0 0
2765 1 7.207197350544718 2.0493960018374864 7.348992289192194 0 0 0
2770 1 9.787780901872704 2.955787248882127 7.281783187850151 0 0 0
2772 2 11.120981263302468 2.0027716145179673 4.982378959592343 0 0 0
2768 1 13.607491199612642 2.9382387119863695 5.001604553830024 0 0 0
2827 1 12.335154760697291 3.898172684511578 7.2383384792478065 0 0 0
2835 1 16.175245396429833 3.875658238519988 5.014045434291625 0 0 0
2771 2 14.880349001026559 1.9201539136184955 7.248820884291106 0 0 0
2778 1 18.763126359010386 1.9735423471128521 5.003715283644616 0 0 0
2776 1 17.512805923057833 2.902181925321973 7.245832014585162 0 0 0
2826 1 3.322403031037733 4.93410637047393 4.997218715253866 0 0 0
2824 2 1.959609437911631 5.78709126319606 7.239350922168747 0 0 0
2825 2 7.17250867729379 4.879087143306706 7.296606208240618 0 0 0
2822 1 5.902037066960458 5.847934188237127 5.03043953351793 0 0 0
2881 2 4.56158962889611 6.701363927927077 7.327453057853918 0 0 0
2889 1 8.437688822138009 6.6685189947919845 5.033618137593027 0 0 0
2830 1 9.718785122757245 5.778105584381655 7.254790211764268 0 0 0
2832 1 11.02632394013233 4.837169037331571 4.988192863646973 0 0 0
2828 1 13.585526139298352 5.7620630490067954 5.0136568412358145 0 0 0
2887 2 12.272849989965398 6.782969628091077 7.288126689000267 0 0 0
2831 1 14.878394777670026 4.804840766065989 7.24469497746952 0 0 0
2895 2 16.227087670333994 6.7239385459140095 5.070881428723781 0 0 0
2838 2 18.794974369944555 4.79667768439687 4.984348651378239 0 0 0
2836 1 17.509742032893836 5.809518734627297 7.2389869155176685 0 0 0
2886 1 3.3287919176282377 7.567455003417015 5.028528693374336 0 0 0
2884 1 2.036952432832137 8.486727096695097 7.232181206756431 0 0 0
2943 2 0.7780873587246331 9.400241779053088 5.045099776162493 0 0 0
2946 2 3.404541875354394 10.272444061458096 5.099410505296756 0 0 0
2882 2 5.964865160007194 8.57736620346837 5.01003359772457 0 0 0
2885 2 7.168113788824613 7.615294878089606 7.244729447783285 0 0 0
2941 1 4.640149239796881 9.384052584898031 7.302067526443549 0 0 0
2945 2 7.1354431317649745 10.290205881512827 7.221176835068633 0 0 0
2890 2 9.730776327030304 8.489514132493909 7.251150214010833 0 0 0
2949 2 8.43107614942354 9.357986959796417 5.092948671714187 0 0 0
2892 2 11.027711852868553 7.594750575185572 5.063648183075032 0 0 0
2888 1 13.593364549043274 8.471737705089799 5.093442082493815 0 0 0
2952 2 10.928616339983474 10.23575906864048 5.159880958071639 0 0 0
2947 2 12.268641277124608 9.38878568433162 7.346935423019605 0 0 0
2891 2 14.83479004643669 7.606248092817938 7.277718064773773 0 0 0
2955 2 16.290784301084376 9.367244499941743 5.167347778705839 0 0 0
2951 2 14.926051674620204 10.222222261637993 7.286322720452382 0 0 0
2898 2 18.823392818931517 7.580062206337696 5.092513150261731 0 0 0
2896 1 17.549789081967788 8.477743960320783 7.255184457712207 0 0 0
2958 2 18.829516844607358 10.28712694626112 5.149138577058281 0 0 0
3003 2 0.7614675077695777 12.136105417780607 5.053114991735038 0 0 0
2944 1 2.007018408942087 11.235841634065316 7.286478521686342 0 0 0
3006 1 3.350521277369154 13.019565010593755 5.106543603403653 0 0 0
2942 2 5.9370818967682295 11.210323688616464 5.023136122997779 0 0 0
3001 1 4.615028721976956 12.16097518929221 7.328440103930663 0 0 0
3009 1 8.417320479069975 12.09942912671688 5.073980917240167 0 0 0
2950 2 9.645752669284818 11.151982410608928 7.246504385360363 0 0 0
3005 2 7.214111621955236 13.089791382237387 7.310114709309173 0 0 0
2948 1 13.57521753565502 11.17787826678536 5.124958275624302 0 0 0
3007 1 12.299664440778606 12.115055594392373 7.322002318176225 0 0 0
3012 2 10.931993854712916 13.043940229961366 5.145876056027606 0 0 0
3015 1 16.283576146643707 12.138649211330302 5.111323207805332 0 0 0
3011 1 14.931119926209439 13.04289242984029 7.301945170718281 0 0 0
2956 2 17.53554389943372 11.24771179867466 7.274945481081763 0 0 0
3018 2 18.86471676421005 12.97784961883293 5.058339786896993 0 0 0
3063 2 0.8160305294608928 14.865901988696859 5.1309669638424475 0 0 0
3066 2 3.289217556668704 15.81684994514551 5.0843125120791814 0 0 0
3004 2 2.0464561398094654 13.862952510003478 7.352506943761626 0 0 0
3064 1 2.007912680110807 16.644444838908413 7.338267732829416 0 0 0
3002 2 5.908840790385778 13.939613197641702 5.188284143731851 0 0 0
3062 2 5.858686470049837 16.664919156587477 5.145780851077964 0 0 0
3061 1 4.593619766856684 14.89395610791163 7.336144959446526 0 0 0
3065 2 7.145027509189376 15.798917141116357 7.34920778618056 0 0 0
3069 2 8.424622418681238 14.833353498996889 5.159152534032969 0 0 0
3010 1 9.703088704450774 13.9614744569884 7.298770255803295 0 0 0
3070 2 9.683225225155523 16.680010268133163 7.343979001644287 0 0 0
3072 2 10.973622950126467 15.780568303029629 5.166213203615099 0 0 0
3008 1 13.598641994641088 13.961354199251865 5.114977970328274 0 0 0
3068 2 13.568647514799931 16.634326655101997 5.178240480001018 0 0 0
3067 2 12.290346556759363 14.941994723895267 7.261197382509709 0 0 0
3075 2 16.285781884467696 14.888424299352474 5.131989978897638 0 0 0
3071 2 14.896314913289535 15.82880450806337 7.301007000869095 0 0 0
3078 2 18.801296409164248 15.643638897158631 5.071044627894347 0 0 0
3016 1 17.53396527009931 13.951210446107796 7.263906182937274 0 0 0
3076 2 17.470598882118065 16.636106314705287 7.217074318238571 0 0 0
3073 2 20.05249359923593 14.7708528347555 7.314769372311528 0 0 0
5523 2 0.7738142580233938 1.1879477734563497 9.506089705019548 0 0 0
5526 2 3.3266305891955175 2.106841403863111 9.560589026692016 0 0 0
5583 1 0.735745092580937 3.8978138336448738 9.502085108640644 0 0 0
5522 2 5.891223525800499 3.057017367542477 9.589599466288382 0 0 0
5529 2 8.462712645093369 1.2476922884630368 9.550301604001257 0 0 0
5589 2 8.394473922621282 3.8977300276431155 9.552476684486004 0 0 0
5532 1 11.066202093594276 2.0209159176450884 9.519118500344334 0 0 0
5528 1 13.63754756850578 2.9330202769745153 9.555038922406984 0 0 0
5595 1 16.199930429907443 3.8326270107112204 9.534114812788642 0 0 0
5538 1 18.830301072354924 1.9768381329913878 9.498749548657981 0 0 0
5586 1 3.3258199447992203 4.820844641358688 9.523596044511285 0 0 0
5582 1 5.887305498366188 5.716488852454344 9.522387945404098 0 0 0
5649 2 8.445929749998568 6.605670060645993 9.389402455425223 0 0 0
5592 1 11.018568903602873 4.848038828232877 9.542753611790499 0 0 0
5588 1 13.611224201690213 5.803162430417124 9.529008098229713 0 0 0
5655 1 16.190690500217553 6.635202276285702 9.518056080063522 0 0 0
5598 1 18.821988648525565 4.793528463003661 9.505012705315469 0 0 0
5646 1 3.317670177965317 7.596901432371475 9.525296347758117 0 0 0
5703 2 0.8203581010318745 9.506993069879444 9.420733516356266 0 0 0
5706 2 3.2720708697380934 10.365426371253353 9.499409024238789 0 0 0
5642 2 6.061797548227278 8.441584247600977 9.48731874356036 0 0 0
5709 1 8.540956058430675 9.429223710847284 9.50762602808224 0 0 0
5652 2 10.971944323088945 7.555974788552801 9.513796823832081 0 0 0
5648 1 13.562645887303876 8.45472348826083 9.573349423999195 0 0 0
5712 1 10.978665891536341 10.250797161764348 9.520764013248941 0 0 0
5715 1 16.22503157763759 9.387020787633766 9.552310730860789 0 0 0
5658 1 18.857073418003054 7.593392097660713 9.526310004477399 0 0 0
5718 1 18.88245330919095 10.321675599677636 9.500097178744104 0 0 0
5766 2 3.2290430887508705 13.088498288268978 9.638762441423449 0 0 0
5763 2 0.7343781079172106 12.201619975593653 9.598697988882765 0 0 0
5702 1 5.874245381483139 11.296774349142604 9.486252949170288 0 0 0
5769 1 8.422009852108909 12.1587009632338 9.51884776111395 0 0 0
5708 1 13.573866537410575 11.169272869431277 9.56062970063908 0 0 0
5772 2 10.968929767746468 13.022837437309276 9.486176933305616 0 0 0
5775 1 16.205215744791523 12.119154785364408 9.54986769081259 0 0 0
5778 1 18.83336334281506 13.022119977172148 9.508479580561831 0 0 0
5823 2 0.7615170876409788 14.780842798975145 9.604147626037626 0 0 0
5826 2 3.3241152698970664 15.744457405702681 9.587371168694952 0 0 0
5762 2 5.837799031683193 14.07653569492504 9.523508275906762 0 0 0
5822 2 5.915705811859154 16.694147894765166 9.567768344186144 0 0 0
5829 2 8.320738268164051 14.940222716833663 9.468040822525627 0 0 0
5832 1 10.986145896559998 15.817825624218635 9.498227176419107 0 0 0
5768 1 13.612209693289934 13.943370665757763 9.568089282259091 0 0 0
5828 1 13.644922980578638 16.711175591042995 9.485179811691106 0 0 0
5835 2 16.262745814610412 14.849005716340791 9.516660859154928 0 0 0
5838 1 18.83538557301556 15.763912934517219 9.489079580992419 0 0 0
5524 2 2.0262568112708443 2.8889811197403046 11.765829905064484 0 0 0
8286 1 3.304443223589865 2.0506458946330475 14.017556469589634 0 0 0
5581 2 4.666644952096352 3.865129510467205 11.757422289399358 0 0 0
8282 2 5.901000706406171 2.9952891518171607 13.965460824922127 0 0 0
5525 2 7.230912553863957 2.136229381220264 11.712545761262142 0 0 0
5530 2 9.757888545457039 2.930748136116618 11.684895631327766 0 0 0
8349 1 8.484691562885306 3.824039993569391 13.937302209750701 0 0 0
8289 1 8.469800218486782 1.1629297445982536 13.916449831833795 0 0 0
5587 1 12.336266363925375 3.8614171094216143 11.768958953508132 0 0 0
8292 2 10.976644897693205 2.0498998419727497 13.91726813032962 0 0 0
8288 1 13.636388074441337 2.9417181615251327 13.918550538402458 0 0 0
5531 1 14.941816933462578 2.0160927797767108 11.74012723927942 0 0 0
8355 1 16.247200472145664 3.8839018187856054 14.005014743352012 0 0 0
8295 2 16.28213621472454 1.1871394389537955 13.926008777475797 0 0 0
5536 2 17.66394041421176 2.8494975019982443 11.812489659021066 0 0 0
8298 2 18.865092016487363 2.024429346171563 14.020490488149859 0 0 0
8346 1 3.3038353947374635 4.736280150981825 14.004358691485967 0 0 0
5584 1 1.985776797191915 5.681728735169562 11.731364765373609 0 0 0
5641 2 4.584460778076243 6.637423148216465 11.745395367141084 0 0 0
8342 1 5.843124548412122 5.6589950371016275 13.984974727027748 0 0 0
5585 2 7.219063247460976 4.802194069803934 11.701240764749699 0 0 0
5590 1 9.793436477450074 5.7169176513721665 11.693909158190635 0 0 0
8409 1 8.512910561196001 6.623958072426189 13.901483359982695 0 0 0
8352 2 11.09660982157128 4.798258071153294 13.96153670845195 0 0 0
5647 2 12.379500177518063 6.668174243519255 11.760471348010903 0 0 0
8348 2 13.618509767464282 5.735009405649738 13.97139029816791 0 0 0
5591 2 14.907889860182308 4.7775848515187835 11.843551312674466 0 0 0
8415 1 16.23201797809751 6.596192018906921 13.975289431951632 0 0 0
8358 2 18.77409464776807 4.772697826842288 14.053851398691721 0 0 0
5596 1 17.504609518195977 5.68447648819669 11.840876462194792 0 0 0
5644 1 2.002199625233669 8.540851940195298 11.726320529369119 0 0 0
8406 1 3.2498682625490067 7.562100615475722 13.975131587625933 0 0 0
8466 2 3.2025757399135353 10.36034768095563 13.97127669058826 0 0 0
8402 1 5.83564651579013 8.49452859070943 13.95006187360071 0 0 0
5701 1 4.565589351593608 9.456129996275065 11.728174584466498 0 0 0
5645 1 7.2328451701201955 7.528321426948562 11.6982700434886 0 0 0
5650 2 9.759022366915163 8.446984452620493 11.76786052791756 0 0 0
5705 1 7.189217977498416 10.37085425366421 11.69017475485352 0 0 0
8469 2 8.539943039389502 9.471695242868844 13.92842221416357 0 0 0
8412 1 11.101864447079484 7.5554540442881 13.925549282969834 0 0 0
8408 2 13.622837871786723 8.45587896945435 13.930264735414768 0 0 0
5707 2 12.282500976866867 9.383449167802839 11.76456248181261 0 0 0
8472 2 11.043779140324606 10.297240779651547 13.880714669270985 0 0 0
5651 2 14.901776955493794 7.501478777022187 11.797141558092665 0 0 0
5711 1 14.851968223754072 10.271077376499337 11.822576964109397 0 0 0
8475 2 16.100098230239094 9.397590493284785 14.017326918095161 0 0 0
5656 1 17.52427142397896 8.460007469148833 11.786835655266488 0 0 0
8418 2 18.85859963110535 7.58098018411484 13.895515616060106 0 0 0
8478 1 18.840975133934855 10.27821686088329 13.995448974569655 0 0 0
5704 2 1.945953548971788 11.291015652708515 11.76691982728625 0 0 0
8526 2 3.1822497009971973 13.095546333243721 13.898753922420482 0 0 0
5761 1 4.556229295552327 12.193585684764715 11.730780137164652 0 0 0
8462 1 5.834267199091767 11.307755178355837 13.900698438672736 0 0 0
5765 2 7.158364839942608 13.19101200090424 11.679972148659479 0 0 0
5710 2 9.77707713947412 11.196370156037403 11.76101615429631 0 0 0
8529 2 8.509472630394987 12.123683168921628 13.872333826435458 0 0 0
5767 2 12.2496160588625 12.074784210635393 11.821849372170828 0 0 0
8468 2 13.528102645697064 11.204670392020894 13.980462559970707 0 0 0
8532 2 11.052873728547935 12.99452734552175 13.927957141734412 0 0 0
5771 2 14.794506804827831 12.91756545108929 11.893441943577331 0 0 0
8535 1 16.189146664216562 12.108995313866894 14.002812622681592 0 0 0
5716 2 17.58305643051546 11.255509976037558 11.804936177254442 0 0 0
8538 1 18.77992127669042 13.021305898280984 13.986136259194318 0 0 0
5764 2 1.9780957074750751 13.91843400130092 11.754474771838225 0 0 0
5824 1 2.0169346016623906 16.688584179394343 11.794636695278937 0 0 0
8586 1 3.246307792491299 15.828877154636261 13.876599290223607 0 0 0
5821 2 4.577834349860075 14.910623134761309 11.694628202579036 0 0 0
5825 2 7.048930917338673 15.846780938736863 11.661023378224574 0 0 0
8522 2 5.820244073874211 14.050379340728405 13.816909750965864 0 0 0
8582 2 5.841547443669891 16.77116066558162 13.84471253854147 0 0 0
5770 1 9.699263809320462 13.99824198438398 11.71537116457287 0 0 0
5830 1 9.654881323985297 16.770693527680915 11.698892833260624 0 0 0
8589 1 8.4662160762757 14.915601809189496 13.883099651654929 0 0 0
5827 1 12.31035431218373 14.847897262160021 11.709491130084087 0 0 0
8592 1 11.06635428534738 15.813872350003274 13.925163445566334 0 0 0
8528 2 13.585834439007755 13.961280578510022 13.965441130038608 0 0 0
8588 1 13.636845798815814 16.705108436144144 13.990666620248208 0 0 0
5831 1 14.888347568844424 15.73241820479777 11.753624530215495 0 0 0
8595 2 16.213286010842644 14.834069725213402 13.99958626757557 0 0 0
5776 1 17.499387152212105 13.925840018810025 11.795583572356108 0 0 0
5836 1 17.441659243758743 16.66382597140317 11.782379680276454 0 0 0
8598 2 18.776917646157262 15.747797410317675 14.049791032798884 0 0 0
8284 2 2.0197610477132972 2.9637127673494623 16.304711839712677 0 0 0
8281 1 4.582526818243376 1.180581054666238 16.22452533114633 0 0 0
8341 2 4.568693414990655 3.852954754948034 16.303635297531127 0 0 0
8285 2 7.171521485022755 2.0772363215667595 16.177845998650938 0 0 0
8290 1 9.787703397799575 2.903538047516783 16.20048592030237 0 0 0
8347 2 12.352418165568965 3.8954245354689156 16.152642765623785 0 0 0
8291 1 14.981010731260609 2.045314401358067 16.228569901648022 0 0 0
8296 2 17.56592445433119 2.9330807082276733 16.170473377753513 0 0 0
8344 1 1.973516168047065 5.649683821095692 16.32185166141799 0 0 0
8345 1 7.123010374903498 4.7666538653767505 16.232306633495206 0 0 0
8401 2 4.493071618782042 6.600893936791093 16.246161826129136 0 0 0
8350 1 9.799005622119658 5.679455350852306 16.209353053034462 0 0 0
8407 2 12.407092338582837 6.556003657894591 16.148860738361744 0 0 0
8351 2 14.920424197909707 4.7496477366626735 16.174173924523476 0 0 0
8356 2 17.493551214553566 5.685978415981767 16.143597540576963 0 0 0
8404 1 1.9157390047826808 8.445832346601797 16.27172762945148 0 0 0
8405 1 7.138064075912551 7.571230566723953 16.214388461949035 0 0 0
8461 1 4.526755734072496 9.396606961744427 16.260013988545026 0 0 0
8465 1 7.125365521450482 10.331533398264806 16.190137487410706 0 0 0
8410 1 9.81517481017767 8.475428550160615 16.178712988092588 0 0 0
8467 1 12.369170555633318 9.353526950720862 16.185553835943622 0 0 0
8411 1 14.955744341235384 7.5006412893028225 16.199484561745052 0 0 0
8471 1 14.900148503302093 10.313864653168974 16.195367157716397 0 0 0
8416 1 17.52051568275444 8.416765794462513 16.21474371986905 0 0 0
8464 2 1.964789245300731 11.243759173988922 16.21109051833722 0 0 0
8521 1 4.542328752400417 12.17939139727744 16.119478192421944 0 0 0
8525 1 7.12799671117618 13.05380296424111 16.114882823740967 0 0 0
8470 1 9.770600576588782 11.199023033113548 16.183535482377316 0 0 0
8527 1 12.35484120237851 12.124741044464518 16.19537082683703 0 0 0
8531 2 14.88074820195124 13.110649144644801 16.13750756361648 0 0 0
8476 2 17.54815444892333 11.172572037611952 16.19944424736981 0 0 0
8533 2 20.07888144112067 12.144609017712856 16.1864350062203 0 0 0
8524 1 1.8864659871020344 13.995268955815371 16.120007793685126 0 0 0
8584 2 1.9294853275181532 16.752207646542978 16.19300665155564 0 0 0
8581 1 4.491273103565219 14.92143863277521 16.085413354731077 0 0 0
8585 1 7.133229764165897 15.862434276023711 16.123410035417564 0 0 0
8530 1 9.779511104441346 13.976657187655096 16.17302100025113 0 0 0
8590 2 9.775465651595349 16.77114953017718 16.155871332956785 0 0 0
8587 1 12.362479386604045 14.8733482038565 16.188442783585575 0 0 0
8591 2 14.955784723571965 15.829275113071631 16.193218394682937 0 0 0
8593 1 20.07707260248085 14.883881498911453 16.26697395697509 0 0 0
8536 1 17.512893341311152 14.002350254404934 16.25469933851524 0 0 0
8596 2 17.473938514823704 16.78967986518903 16.207632483798363 0 0 0
11046 2 3.2492494370552665 2.1629435863155235 18.4663062829023 0 0 0
11044 2 1.9758379467462535 2.9660347238976987 20.636644356202627 0 0 0
11042 2 5.767300586797245 2.9532365033156833 18.485409998996328 0 0 0
11045 2 7.121470549098334 2.03907149930751 20.691019866780213 0 0 0
11101 2 4.508118108500727 3.8280056667756965 20.648785574100206 0 0 0
11109 1 8.428493312957903 3.8341676242827973 18.46461463835696 0 0 0
11050 2 9.76380519890758 2.967368519777759 20.77438419701195 0 0 0
11052 2 11.037117269784417 2.0653326136810217 18.50827018426459 0 0 0
11107 2 12.304678193169908 3.83951318898562 20.73538806465578 0 0 0
11048 1 13.623811382052425 2.952231605183863 18.451331598554184 0 0 0
11115 2 16.28062206946288 3.9243537162520967 18.415016466649092 0 0 0
11051 2 14.867471980908746 2.116671613646016 20.721003321061158 0 0 0
11058 1 18.83106546867744 2.0074876837737725 18.420652743136987 0 0 0
11056 1 17.53919895505568 2.914386403166652 20.68241260496078 0 0 0
11106 2 3.2434161217737802 4.778894685856657 18.477988864532108 0 0 0
11104 1 1.944293631728853 5.7079122420187 20.657461152255724 0 0 0
11105 1 7.11497904347073 4.789612661366477 20.72283305727446 0 0 0
11102 1 5.785362785408701 5.699327621681063 18.521995375755242 0 0 0
11161 2 4.484240247339137 6.583227588198462 20.731432323808136 0 0 0
11169 1 8.414383257080294 6.62406608790951 18.534764809004912 0 0 0
11110 1 9.734377093939475 5.710859691081258 20.75227704167558 0 0 0
11112 1 11.080455005598292 4.756127674900326 18.446795583648466 0 0 0
11167 1 12.37452577385657 6.604011122946677 20.690119484799535 0 0 0
11111 1 14.904148096859272 4.834404107434636 20.661709214067486 0 0 0
11108 2 13.644374026993233 5.607770493837438 18.34627243263545 0 0 0
11175 1 16.216067531099707 6.632036419598155 18.429545604169185 0 0 0
11118 1 18.827719873529244 4.789721890525967 18.40004691933717 0 0 0
11116 1 17.54879749045165 5.737788947064762 20.694464397812908 0 0 0
11166 2 3.2263107376025117 7.508577671135544 18.495988536764983 0 0 0
11164 2 1.9798532675933682 8.526260928643103 20.63024677636169 0 0 0
11226 1 3.2260043382781993 10.284856118934844 18.484628895238323 0 0 0
11162 1 5.790974547373013 8.427951505473793 18.53840407079538 0 0 0
11165 2 7.093989322866453 7.565256463148772 20.799807389984196 0 0 0
11221 1 4.5230663280245516 9.342003805256667 20.715349561689653 0 0 0
11225 2 7.066806021953004 10.246468253023584 20.673636674604158 0 0 0
11170 1 9.709002710118817 8.438293549971839 20.771960263821246 0 0 0
11229 2 8.388422270019797 9.383422272150808 18.47502467070527 0 0 0
11172 1 11.095883892289866 7.504909397861443 18.482982175514557 0 0 0
11232 1 11.092594018755594 10.269617492211289 18.463110913041625 0 0 0
11227 1 12.386971386698018 9.320928017933898 20.729502504267394 0 0 0
11168 2 13.70792956896808 8.424826315985184 18.457834941836083 0 0 0
11171 2 14.97386994741918 7.520865609580626 20.71754377972048 0 0 0
11235 1 16.274201668118057 9.36423854813812 18.42995407117331 0 0 0
11231 2 15.021777787361998 10.217578167592606 20.67500536601408 0 0 0
11178 2 18.78609922876 7.538617842779383 18.508405177437744 0 0 0
11176 2 17.530058909694812 8.483479151337665 20.745731435682753 0 0 0
11238 1 18.81196664981063 10.277050709222658 18.47749147359483 0 0 0
11224 2 1.9380638538605068 11.264877760138095 20.71802000449791 0 0 0
11286 1 3.184063186780631 13.05665175530531 18.481550926414453 0 0 0
11222 2 5.786446409354571 11.212541026323953 18.510142186849578 0 0 0
11281 1 4.517704273863034 12.109522439831414 20.762175816488625 0 0 0
11285 1 7.096197727052139 13.031370075420178 20.77611486875881 0 0 0
11289 1 8.404725585938321 12.126024171652304 18.471506623214818 0 0 0
11230 1 9.709712208149984 11.176138547650881 20.738998788933035 0 0 0
11287 1 12.399680711260316 12.093023066572417 20.704803918019334 0 0 0
11292 1 11.114255866715965 13.058319992879328 18.446279202569592 0 0 0
11228 2 13.721924733715348 11.15900671232329 18.436701006088352 0 0 0
11295 1 16.256086983174537 12.160496637852894 18.46942814056865 0 0 0
11291 1 14.997433581181866 12.976448519709688 20.666838103472433 0 0 0
11236 2 17.47741786909947 11.174415543037982 20.711130592908816 0 0 0
11298 1 18.819914802399214 13.063104560450535 18.47280660159971 0 0 0
11346 1 3.194622017622188 15.788858694914193 18.472643827588367 0 0 0
11284 2 1.9080482191044368 13.958404799536003 20.79399985480081 0 0 0
11344 2 1.931964857451918 16.61723071068278 20.69616766713746 0 0 0
11282 1 5.808303139359968 13.987128298833868 18.468767745803397 0 0 0
11342 1 5.800343805230522 16.784462838212015 18.439164451965613 0 0 0
11341 2 4.468941516893006 14.891402315992119 20.74918631242867 0 0 0
11345 1 7.103195887780051 15.851279386789589 20.69929911701982 0 0 0
11349 1 8.41347233935268 14.91925967341582 18.43737946502288 0 0 0
11290 1 9.749951453533154 13.945856851607664 20.73343046166655 0 0 0
11350 1 9.72985767403254 16.780585757820305 20.681027018852966 0 0 0
11352 2 11.096444399175114 15.882932078952194 18.375371605435156 0 0 0
11347 1 12.368489878537462 14.835312958557262 20.710199819377426 0 0 0
11288 2 13.735558237267064 13.955787913784414 18.405737182164348 0 0 0
11348 1 13.683133664419433 16.776491996162296 18.36509058033234 0 0 0
11355 1 16.2801498095759 14.91137074293113 18.43268079073226 0 0 0
11351 1 15.000411736593488 15.786070494438594 20.624230492673117 0 0 0
11358 2 18.799971038932735 15.910097918811035 18.400939647283693 0 0 0
11296 2 17.595339908518223 13.954785466716103 20.72173888820616 0 0 0
11356 2 17.574166173803228 16.75734868297539 20.641599058098056 0 0 0
13806 1 3.324144932846143 2.0762883111114636 22.92190319006666 0 0 0
13802 1 5.81484380597423 2.942217005178991 22.91493829871185 0 0 0
13869 1 8.445373445655918 3.8876228178311614 22.96884748041914 0 0 0
13812 2 11.046997732660024 2.048543507969108 22.922054658695057 0 0 0
13808 1 13.61184866312465 3.0206671835606147 22.951882305101957 0 0 0
13875 1 16.23105912693619 3.9102492037887404 22.92385517406638 0 0 0
13815 1 16.26939512632863 1.167462245267283 22.911952609111538 0 0 0
13818 2 18.857473214714386 2.0409169899376205 22.92657556173823 0 0 0
13866 1 3.224259041785195 4.816470278389628 22.91705444790007 0 0 0
13862 1 5.849772406717112 5.693305294378078 22.948029529568835 0 0 0
13929 2 8.468922728957514 6.621906713805434 22.99336804299563 0 0 0
13872 2 11.024622472021111 4.77668203463067 23.003790995143383 0 0 0
13932 2 11.017558164396416 7.435515975792754 23.0367755560879 0 0 0
13868 1 13.627432600304283 5.740486935253236 22.930085752469402 0 0 0
13935 2 16.299256836522993 6.700968827263324 22.936669159307215 0 0 0
13878 1 18.844420183125514 4.8395653744035645 22.98143292928325 0 0 0
13926 1 3.2973346032503863 7.571816647484304 22.919698516431186 0 0 0
13986 2 3.2164675812587387 10.291211336272818 22.93321447730257 0 0 0
13922 2 5.915736382675635 8.442066101761977 23.041981914264152 0 0 0
13989 1 8.435938415332679 9.331491119766623 22.99286535491577 0 0 0
13992 1 10.98340223263763 10.243703494588495 23.058954046775927 0 0 0
13928 1 13.672525740095315 8.419456269428068 22.941369554868785 0 0 0
13995 2 16.267176760369903 9.34197060050553 22.82255805164763 0 0 0
13938 2 18.859471153060287 7.6273896238411405 22.957636621208472 0 0 0
13998 1 18.82461120121933 10.302404161755316 22.92999467952603 0 0 0
14046 2 3.224918434420727 13.03858006206126 22.93427549993909 0 0 0
16876 1 17.491627073397304 16.647894972712376 29.704348997882352 0 0 0
13982 1 5.798459246062227 11.17918419752324 22.97460287744786 0 0 0
14049 2 8.444189301611107 12.079537747698813 23.08326530097222 0 0 0