LAMMPS data file via write_data, version 2 Aug 2023, timestep = 5054239, units = metal

38640 atoms
3 atom types

0.12923292670215955 78.74433679326741 xlo xhi
0.1282953895255611 128.14738742039543 ylo yhi
0.1138061151542979 63.63894127483847 zlo zhi

Masses

1 92.90600000000001
2 180.948
3 50.942

Atoms # atomic

1944 3 2.2045310602716595 1.5936699961261052 2.864794229452338 0 0 1
1956 1 4.902344542473615 2.478979196095103 2.8587224894030334 0 0 1
1958 3 0.8825658979600898 2.4325322425140032 0.6172965060312081 0 0 1
1961 2 3.6158115428220157 3.355382518463838 0.5987608912815845 0 0 1
1946 1 3.548148108683554 0.6489839549617886 0.598747102719792 0 0 1
1945 1 7.581444506508033 0.6822406453456606 2.855664310055561 0 0 1
1960 1 7.5998310302351735 3.428043088208554 2.823002666767672 0 0 1
1942 3 6.170725230048449 1.6838456180415338 0.542915547555317 0 0 1
1964 2 8.905389691443599 2.557657861060545 0.5970163843627772 0 0 1
1950 1 10.335182273499257 1.6057866699810828 2.8275685113221596 0 0 1
1962 1 12.99324048630139 2.5594902403204003 2.859290855036152 0 0 1
1948 3 14.33325630780448 1.7097349993509166 0.6045666547489309 0 0 1
1967 2 11.652994507336187 3.4566245957208794 0.5887609542721116 0 0 1
1952 1 11.647979512356681 0.7061609821266204 0.5777188172312249 0 0 1
1954 3 18.362206619357128 1.6455760234773698 2.804334644143972 0 0 1
1951 1 15.734957224752286 0.6701410648386895 2.841369030348526 0 0 1
1966 2 15.658186297324947 3.4389499240271317 2.837895987095389 0 0 1
1968 2 17.02670808679454 2.5095087836652428 0.5896616394493431 0 0 1
1970 2 19.686315233834694 3.4110104047912087 0.5993693114202158 0 0 1
1959 1 2.2663731301756957 4.279170167394362 2.860441170743061 0 0 1
1974 2 2.3167727651747825 7.022909252289687 2.885740831023556 0 0 1
1973 3 0.9729346391991947 5.163155155394042 0.6756412984165034 0 0 1
1976 2 3.6514706127885552 6.130268666935765 0.5875647109292359 0 0 1
1988 2 0.9923728605585131 7.947942668264382 0.6175293629499083 0 0 1
1986 3 5.017714514857621 7.960354227947159 2.783250573075672 0 0 1
1971 3 4.948458282954002 5.243192814394943 2.781142930340031 0 0 1
1975 2 7.638869675806929 6.158008560206326 2.8289466773086644 0 0 1
1972 2 6.329850355346193 7.057713855250818 0.5866432912202169 0 0 1
1957 3 6.309290063571482 4.362458849540454 0.5835826136283974 0 0 1
1979 3 8.983406296810696 5.2815747418968515 0.5592804434529347 0 0 1
1994 3 8.986047606708546 7.973477815994583 0.582384714414179 0 0 1
1965 3 10.3138927088116 4.411366043868618 2.764231179018164 0 0 1
1977 3 12.990714431689995 5.280981687213888 2.785196701851853 0 0 1
1980 2 10.33291389456445 7.100837193706063 2.7919684371676152 0 0 1
1982 2 11.65166164488704 6.172071418688887 0.5680826920219477 0 0 1
1978 2 14.308328361228465 7.071514526809352 0.5722194892924082 0 0 1
1963 3 14.339060340803282 4.374765563996098 0.5606527056505919 0 0 1
1992 3 12.98370558193952 7.995819090858663 2.810340065864045 0 0 1
1969 3 18.34661401393326 4.350974046123555 2.7706053795047936 0 0 1
1981 2 15.637694282527889 6.170480660052127 2.803168921590469 0 0 1
1984 2 18.303590589122255 7.065707366968359 2.824163059146708 0 0 1
1983 3 16.98841163417919 5.2288605283715155 0.5825613748451614 0 0 1
1985 2 19.641559057406482 6.129029007757517 0.5948832462264935 0 0 1
1998 3 16.94894411125636 7.987125602288958 0.557554957353642 0 0 1
1989 2 2.3206327624886227 9.771441930812955 2.8427922248289508 0 0 1
2003 3 0.9948474439402241 10.712131593107888 0.6520599176505739 0 0 1
1991 3 3.7054057672912477 8.84929488774665 0.6076169809511773 0 0 1
2006 3 3.6498975001345713 11.55550533979036 0.5767773900992351 0 0 1
2001 2 4.989740808694861 10.674845735930365 2.8386054551447253 0 0 1
1990 3 7.6662142486842395 8.891954828652757 2.7851530800388247 0 0 1
2005 3 7.649880334386936 11.555345882143442 2.8339093993209055 0 0 1
2009 2 8.985143167530639 10.686424026659395 0.5826393289938943 0 0 1
1987 2 6.326478705339267 9.774881195194993 0.587965217025868 0 0 1
1995 2 10.33306259221196 9.800484347799815 2.811411206017976 0 0 1
2007 3 12.998491219478352 10.710966943770552 2.829682455088423 0 0 1
1993 2 14.301248778273528 9.788194641961715 0.5916830185124329 0 0 1
2012 3 11.650366864662882 11.568780757308474 0.5946781738056894 0 0 1
1997 3 11.639394453870938 8.872629870319495 0.5782237885756569 0 0 1
2013 3 16.968746109655473 10.708620191998925 0.6044838599558381 0 0 1
1999 2 18.28832536597633 9.816717415487133 2.8302647075947722 0 0 1
1996 2 15.630323015192918 8.906631225451237 2.8186690271467785 0 0 1
2011 3 15.636529990961504 11.613957683307603 2.8236928866944355 0 0 1
2000 2 19.60618808296286 8.882933875675473 0.6097733456199095 0 0 1
2015 3 19.60672712306556 11.604432922675741 0.6114053212329565 0 0 1
2004 2 2.3093493052154903 12.48381131290232 2.863598429173252 0 0 1
2019 3 2.233106727099667 15.192786734003073 2.85313762602662 0 0 1
2018 2 1.0135415036286886 13.404906618570847 0.6338908465703657 0 0 1
2021 2 3.637746061745165 14.298749078674991 0.5963625690826589 0 0 1
2031 1 4.887918363173124 16.11336084699538 2.8572965284171854 0 0 1
2016 2 4.977232917829328 13.4118623836109 2.843068654103136 0 0 1
2024 2 8.964510322152828 13.413301136668359 0.59725224733538 0 0 1
2020 1 7.627605629091333 14.271736754565804 2.8660401189909392 0 0 1
2017 3 6.299059547325405 15.227530687119717 0.615677721167678 0 0 1
2002 3 6.293189314772888 12.468913157153498 0.572240908580132 0 0 1
2039 1 8.990859694213482 16.109029744952423 0.5473266811248181 0 0 1
2022 2 13.00108672838036 13.420806979567436 2.847780728024654 0 0 1
2010 2 10.340783267430423 12.490055483366346 2.8396695955285147 0 0 1
2025 3 10.297000970261116 15.208771299573215 2.8749350595142995 0 0 1
2008 2 14.311834564316642 12.506962458928998 0.6046770173888291 0 0 1
2023 3 14.351638366758777 15.237950069347285 0.6185737553443051 0 0 1
2027 2 11.666391688278814 14.358096842548004 0.5924538397190569 0 0 1
2028 2 16.98383604914752 13.421594209285232 0.6197413139080191 0 0 1
2014 2 18.29749158216023 12.525237360194877 2.837954379488643 0 0 1
2026 3 15.666025702695029 14.346605449261348 2.8384177127919914 0 0 1
2029 3 18.312593514065014 15.247856529887517 2.8374797489386983 0 0 1
2030 3 19.62187101928107 14.337186272586626 0.6237121244481119 0 0 1
2043 2 17.022369367712272 16.163672614351643 0.6203185288785961 0 0 1
2033 3 1.002351030899561 16.146252802085424 0.6296277120713524 0 0 1
2051 3 3.5250068777896235 19.78320299424254 0.6177820177166141 0 0 1
2034 2 2.2623117346518886 17.952021631072263 2.8881135654548205 0 0 1
2048 3 0.9746047515612564 18.8755921785335 0.6704582762149941 0 0 1
2036 2 3.622447080871951 17.050196449248073 0.6106250999393225 0 0 1
2046 3 4.907007532850509 18.86725959534219 2.8124682932457628 0 0 1
2035 1 7.584311909233178 17.021315165884662 2.8542561167159928 0 0 1
2032 1 6.233339195820384 17.96591415603348 0.579590589043178 0 0 1
2054 3 8.86986115466952 18.85686823452937 0.5974939560419097 0 0 1
2050 1 7.568494000580311 19.78900180453919 2.878912842986855 0 0 1
2037 2 12.99870368025914 16.145706618883295 2.880661686555445 0 0 1
2042 1 11.629381755256189 17.09045081242562 0.5782208910385118 0 0 1
2040 1 10.308463597826869 17.97054635088073 2.856873278637252 0 0 1
2052 1 13.059152046176063 18.89559010343129 2.861307950077373 0 0 1
2038 1 14.378870350417833 18.006133427148754 0.6000536740275753 0 0 1
2057 1 11.627735513937957 19.755470864385753 0.5662424653175139 0 0 1
2044 3 18.38894709478748 17.95185362222645 2.8618229066420073 0 0 1
2041 2 15.71935021785124 17.085825112938426 2.849618952826145 0 0 1
2058 3 17.11190343284173 18.92227315753922 0.6297951313965823 0 0 1
2056 1 15.747957677650176 19.82821759417666 2.87631577919944 0 0 1
2045 2 19.655949606047166 17.084911631833958 0.6208360534410157 0 0 1
2060 3 19.682561522515517 19.840574920475934 0.627808340133497 0 0 1
2049 2 2.261102888696512 20.715675717756714 2.8964397961561086 0 0 1
2061 1 4.869120578648999 21.647455617710943 2.896021449180527 0 0 1
2064 3 2.1260804235265574 23.44196357233641 2.951471733729767 0 0 1
2066 3 3.4727327354721 22.501815523300397 0.6724044240116172 0 0 1
2063 2 0.9302668277701227 21.615004963415302 0.6826758527898305 0 0 1
2065 1 7.57147279581716 22.55656293131998 2.9086316299846637 0 0 1
2062 1 6.1835937365415985 23.417119687034933 0.6229036536585693 0 0 1
2047 1 6.223392305696789 20.679425679920534 0.610125956913393 0 0 1
2069 1 8.930365556655667 21.616285750200344 0.6016713615104419 0 0 1
2055 1 10.29848203570439 20.711347402023435 2.885365710691842 0 0 1
2067 1 13.026399548315043 21.645472065202352 2.908224115781614 0 0 1
2070 1 10.30020257353886 23.499844932514137 2.936716786999408 0 0 1
2072 1 11.640521242718103 22.553568121769484 0.6193398795631613 0 0 1
2068 1 14.400526216022111 23.494079049986173 0.6273079473674837 0 0 1
2053 1 14.381490804853202 20.686163106824186 0.574112443780618 0 0 1
2073 2 17.079804034529932 21.68662487762452 0.606289336877523 0 0 1
2059 2 18.39066657409575 20.702532319757253 2.8704574447370415 0 0 1
2071 1 15.782051363235274 22.56458864736077 2.9474294930281144 0 0 1
2074 3 18.473039506632524 23.46637167074964 2.840914834668376 0 0 1
2075 3 19.7400336275349 22.571575307811607 0.6407580268152595 0 0 1
2092 3 0.8125178536099307 27.110382147120404 0.766862909486326 0 0 1
2079 1 2.166751157693238 26.2366004941734 3.043839221766286 0 0 1
2078 2 0.9326543345029624 24.35660647576703 0.7163154397923481 0 0 1
2081 1 3.5348734035606424 25.285037385972014 0.7114560111268189 0 0 1
2076 1 4.824035476414009 24.370018161538823 2.9365948790497725 0 0 1
2091 1 4.870740122053624 27.16930096748221 3.0358840130996922 0 0 1
2094 1 3.526336547217632 28.050092896679807 0.7338408311820472 0 0 1
2084 1 8.932107050753741 24.38694973953233 0.6318384339345143 0 0 1
2080 1 7.580593088108089 25.339126019296383 2.9742998966382475 0 0 1
2077 1 6.246645862960548 26.224648185911065 0.6948911946184383 0 0 1
2096 1 8.967232670339259 27.19285969305535 0.6958538551410018 0 0 1
2085 1 10.31579247896116 26.293795599447236 3.002038147113961 0 0 1
2082 1 13.030290012750864 24.43692445546051 2.954359834954793 0 0 1
2095 1 13.016322222925835 27.23903672771915 3.005609474330441 0 0 1
2083 1 14.388738549085993 26.2916675035298 0.6627657698685454 0 0 1
2087 1 11.666804200127615 25.34649192112737 0.6556441385944335 0 0 1
2098 1 11.673358810107846 28.142884883812627 0.7104437117414951 0 0 1
2099 1 17.11181670927318 27.190100355530987 0.6532800395696325 0 0 1
2086 1 15.772907419306698 25.355313259267636 2.9513834264965886 0 0 1
2089 1 18.45275849360893 26.26497609251626 2.9537030286206702 0 0 1
2088 1 17.10290477316044 24.44432969585855 0.6189562920159156 0 0 1
4331 1 3.5663033450815655 30.859558636428037 0.7664645042995236 0 0 1
4322 1 2.1738274236383095 29.005267565573103 3.06189412891906 0 0 1
4328 1 0.8756939830237327 29.910022802562956 0.7922416213198578 0 0 1
4329 1 2.179601485765298 31.771395997048174 3.1136172783006475 0 0 1
4326 1 4.902085428525075 29.96234745461134 3.0778257461798586 0 0 1
2093 1 7.604156483756648 28.131564618342242 3.0378087967649834 0 0 1
4334 1 8.970276100832994 29.98395530396639 0.7475968227921135 0 0 1
4330 1 7.618018079387345 30.92933210230006 3.0863624972562427 0 0 1
4321 1 6.256490576824334 29.02206236203603 0.7366991788746752 0 0 1
4327 1 6.278921341966977 31.831990082769604 0.7979183545519082 0 0 1
4337 1 11.68100991593242 30.96065578728819 0.767110728208034 0 0 1
4324 1 10.317693772852259 29.089141875025895 3.0488884027954293 0 0 1
4332 1 13.022234885292386 30.043861200053176 3.0554416690406754 0 0 1
4323 1 14.382662541328187 29.08855314540242 0.7106431156262838 0 0 1
4333 1 14.36572040826245 31.919025787768295 0.763936751978977 0 0 1
4335 1 10.324574049661752 31.90069255317001 3.0947200599689215 0 0 1
2100 1 19.712878437928584 28.121244816649305 0.6486271775632027 0 0 1
2097 1 15.731641377913327 28.167390874998723 3.0040361505271087 0 0 1
4338 1 17.052930994837475 30.029743023725022 0.714280348327878 0 0 1
4325 1 18.415126183836097 29.089056521517552 3.000607418838565 0 0 1
4336 1 15.698234921470169 31.00340466441782 3.060470430046955 0 0 1
4340 1 19.71938405661685 30.959219319856512 0.7168636181682889 0 0 1
4339 1 18.378062913347005 31.9463093660844 3.060605952643432 0 0 1
2133 3 0.8587480839776698 2.3496801940201477 5.162742554420023 0 0 1
2136 1 3.5660449018478113 3.3534160631521717 5.10992732209321 0 0 1
2121 1 3.549483109880248 0.5913117451045985 5.177370937217807 0 0 1
2119 1 2.2363469228243487 1.4683861457710128 7.463427971983854 0 0 1
2131 1 4.927187668437623 2.429274917997766 7.45630119315355 0 0 1
2139 1 8.985250623387557 2.4981381031761902 5.106644317074072 0 0 1
2117 1 6.253888949192937 1.5321673724176483 5.146863395815713 0 0 1
2120 1 7.623084096692402 0.5647396486370959 7.508719547913424 0 0 1
2135 1 7.631191286464283 3.3803117334868746 7.420147264388886 0 0 1
2142 1 11.69440078028027 3.4253040250370996 5.049876462800912 0 0 1
2127 1 11.66532737267687 0.6314066546764855 5.170494981944398 0 0 1
2125 1 10.321754534078712 1.5162916060085987 7.466123643906094 0 0 1
2123 1 14.352615345637581 1.601527253317175 5.117099217547833 0 0 1
2137 1 13.028032283190386 2.4940213991889233 7.385814202257621 0 0 1
2143 1 17.005174845867796 2.508966893539137 5.106037539119143 0 0 1
2126 1 15.689457941701951 0.6105684103537484 7.450652057327984 0 0 1
2129 1 18.347986868853624 1.558419279826078 7.410354916734504 0 0 1
2141 1 15.690331306297383 3.4194296997981835 7.331815777651335 0 0 1
2145 1 19.619551462999794 3.411746699897711 5.068423809275958 0 0 1
2130 1 19.715800778007747 0.6345005238122872 5.099608589125156 0 0 1
2134 1 2.252433061698569 4.2579136755277 7.420553448709608 0 0 1
2148 1 0.9464509659084144 5.1906750733161315 5.091604625973825 0 0 1
2151 1 3.6184334262147666 6.113036680833732 5.132966408804608 0 0 1
2149 1 2.268914791980498 7.04937718710888 7.36846129017094 0 0 1
2163 3 0.930681449072598 8.01688940850269 5.1124767256171335 0 0 1
2146 1 4.950856825403229 5.243930822596862 7.423141549150791 0 0 1
2161 3 4.947410475184568 8.06599081121128 7.364945871748438 0 0 1
2132 1 6.300795119485737 4.334470185989272 5.079928141118386 0 0 1
2154 1 9.006850816550925 5.291973238862344 5.05015420448997 0 0 1
2147 1 6.298173736167835 7.068360132574149 5.096884353598453 0 0 1
2150 1 7.627046498335678 6.172855881730723 7.358075121587408 0 0 1
2169 3 8.970842453777337 8.074383371853676 5.026804101802445 0 0 1
2140 1 10.338959007816598 4.318839743378455 7.378281565092941 0 0 1
2138 3 14.29500689833859 4.473846593753113 5.045535423358713 0 0 1
2153 3 14.344704037565398 7.127442158645888 5.032172802377803 0 0 1
2157 2 11.691879057056314 6.160607514610781 5.047738928458214 0 0 1
2152 1 12.998501642515961 5.264544112574503 7.342570268732801 0 0 1
2155 1 10.327886951927985 7.112254492097047 7.304987897147828 0 0 1
2167 3 13.000830628596123 8.021190019640073 7.237953755038269 0 0 1
2160 2 19.638909149626322 6.1468427752789685 5.057548134203002 0 0 1
2158 2 16.963559511820787 5.252635218614824 5.034689455032262 0 0 1
2144 3 18.316608569778456 4.406319568719494 7.3371934791413365 0 0 1
2156 2 15.62500914440463 6.1696364024072246 7.304996541273503 0 0 1
2159 3 18.25791832220699 7.099787774373008 7.230033498948231 0 0 1
2173 3 16.942727655329797 8.004782853534008 5.088954220979743 0 0 1
2166 2 3.6360542020400755 8.850676689147859 5.072643952645282 0 0 1
2178 3 0.9907980991489741 10.684037140632617 5.130342633714193 0 0 1
2181 3 3.6289856800841527 11.580300606855504 5.130579672273141 0 0 1
2164 2 2.3107572135806707 9.76553122354637 7.3616038178785 0 0 1
2176 3 4.996519594592045 10.70292835758709 7.277718047679277 0 0 1
2162 2 6.33699667427592 9.760591762169758 5.063616085162136 0 0 1
2184 3 9.003209787675624 10.715949303512195 5.080245913962151 0 0 1
2165 2 7.640461738862474 8.933908775985545 7.365666115664101 0 0 1
2180 3 7.670608367954705 11.615357506410867 7.302479643021568 0 0 1
2172 2 11.673599412714482 8.921157855762377 5.030889648042266 0 0 1
2187 3 11.655294805391733 11.60894180705125 5.0587782614432175 0 0 1
2168 2 14.322945243720863 9.828177930430755 5.050827631478412 0 0 1
2170 2 10.357220849940902 9.816338020809134 7.316781162859373 0 0 1
2182 3 12.995507549076528 10.736980407052245 7.281141517837692 0 0 1
2188 3 16.970322182086196 10.719960155965275 5.063422085316841 0 0 1
2174 2 18.30599972290907 9.832434856748744 7.304078472925592 0 0 1
2171 2 15.632897291369193 8.94850743615015 7.314746710045045 0 0 1
2186 3 15.653224548852716 11.65971648514445 7.270292672166172 0 0 1
2175 2 19.61047262235594 8.909406291133594 5.055636731109211 0 0 1
2190 3 19.61402538715493 11.619745965846723 5.0623958933104625 0 0 1
2196 3 3.6352956224406197 14.252646561441455 5.097655347943634 0 0 1
2193 2 0.9751313803730901 13.385392756527352 5.113523290024868 0 0 1
2179 2 2.308617778762511 12.49316763598803 7.369601983319304 0 0 1
2194 1 2.3319269936062237 15.208946033673776 7.365157702844507 0 0 1
2191 2 5.020521429440771 13.411337274029574 7.364569646968776 0 0 1
2192 3 6.265922332072706 15.187799324585146 5.108892503012872 0 0 1
2199 2 8.99963938903183 13.439054028158036 5.077997891858944 0 0 1
2177 2 6.313393388199825 12.47782291526536 5.099805578785189 0 0 1
2195 3 7.685224217402427 14.260217376446192 7.303010296165386 0 0 1
2183 2 14.324035589917361 12.521950500125456 5.054419019092652 0 0 1
2202 3 11.693825391525332 14.319678453151353 5.082874155722485 0 0 1
2198 3 14.368628589853808 15.216682887158003 5.078284894354817 0 0 1
2185 2 10.33226250022541 12.513625479631175 7.30247828856882 0 0 1
2197 2 12.997942288424008 13.419362582118216 7.292664953797766 0 0 1
2200 3 10.324485055625367 15.147721845416996 7.355080156682886 0 0 1
2203 2 16.984727449142806 13.432260315740958 5.051697624377666 0 0 1
2189 2 18.288636983807677 12.551953901195718 7.274555659691661 0 0 1
2201 3 15.63949189231648 14.324074859788098 7.282204381983081 0 0 1
2204 3 18.30094261270045 15.241831625831852 7.287628068215638 0 0 1
2205 3 19.638789354865427 14.349162526861456 5.065194413212211 0 0 1
2206 1 4.988066659643613 16.11933443798816 7.411169979405201 0 0 1
2208 2 0.9688007650613786 16.149017363508943 5.1443766603260075 0 0 1
2211 1 3.6275943902526633 17.042622378587648 5.124130322762466 0 0 1
2223 3 0.8806929723031661 18.953009026079727 5.08341641244056 0 0 1
2209 1 2.2547303152986067 17.998807968480506 7.437804433379529 0 0 1
2226 1 3.5767192373935073 19.805859245363436 5.151780003090005 0 0 1
2221 1 4.933221391220658 18.90405871355842 7.479996934049139 0 0 1
2214 1 8.978728263220386 16.134880820691937 5.160670593780591 0 0 1
2229 1 8.942518961748114 18.871519343310283 5.166224120048399 0 0 1
2207 1 6.255266588883478 17.950723057620586 5.129529406732838 0 0 1
2210 1 7.65912181292694 17.010722350091793 7.426344655061356 0 0 1
2225 1 7.60484236066824 19.820521455593443 7.514608860038671 0 0 1
2212 2 12.98619483005641 16.131880560702733 7.307688809771245 0 0 1
2213 3 14.400705370749598 17.881690696857135 5.12108849987419 0 0 1
2217 1 11.658404364045987 17.027121871780178 5.12224664092329 0 0 1
2215 1 10.331045142761342 17.93296174958815 7.436088904731293 0 0 1
2227 1 13.048480673144178 18.88773592332032 7.428153431485711 0 0 1
2232 1 11.692993594812242 19.78867925671408 5.177568839839957 0 0 1
2218 2 17.0112174526297 16.13472186759392 5.0747115679518 0 0 1
2233 3 17.048409955259558 18.81597602543542 5.08070407154861 0 0 1
2219 3 18.39392365506928 17.954229249325987 7.263449315677212 0 0 1
2216 2 15.714613978130476 17.038003607963283 7.350078227428517 0 0 1
2231 1 15.712141816069899 19.795777388791066 7.385818285945902 0 0 1
2220 2 19.6648168743216 17.05579852533526 5.075554041014543 0 0 1
2235 2 19.682979651677822 19.803127547623696 5.11366061948631 0 0 1
2238 2 0.8908427855973119 21.67456034669103 5.20644686644415 0 0 1
2241 1 3.5422704570251176 22.58109053518418 5.213004708123971 0 0 1
2224 1 2.2130663638307984 20.779420862071845 7.505302169155374 0 0 1
2239 1 2.2071741081823446 23.529910514559514 7.569941431207571 0 0 1
2236 1 4.901223182351387 21.694917389387964 7.5617497607423365 0 0 1
2222 1 6.231252333061203 20.730722482613164 5.191104678839612 0 0 1
2244 1 8.934401340459194 21.672291222054913 5.226724781452126 0 0 1
2237 1 6.233434320091129 23.51976703728283 5.2603865964762955 0 0 1
2240 1 7.589753868042731 22.621972334931403 7.59410922139298 0 0 1
2245 1 10.278989127348053 23.542569480304426 7.5948354189415 0 0 1
2230 1 10.294914234588342 20.751200043549463 7.523603392048621 0 0 1
2243 1 14.387978922374126 23.51531023067055 5.232440324295987 0 0 1
2247 1 11.65767541271866 22.60220366974457 5.24503879505057 0 0 1
2228 1 14.40546708933818 20.69695227457676 5.17949767921692 0 0 1
2242 1 12.987903141208141 21.681583029480922 7.513559278736494 0 0 1
2248 1 17.105112917477683 21.634044803877146 5.165534431775246 0 0 1
2234 1 18.378727318292793 20.733431154848983 7.371095508208971 0 0 1
2246 1 15.693147348287203 22.607869080344976 7.485889526414322 0 0 1
2249 1 18.388247280407917 23.520766301109873 7.423398373151888 0 0 1
2253 2 0.8403992908559076 24.436703108126284 5.293246423037009 0 0 1
2256 1 3.4910594646634485 25.349398642318736 5.274562538831676 0 0 1
2267 3 0.774306467865971 27.191487195458983 5.350735352174151 0 0 1
2254 1 2.172334937945466 26.301157638596617 7.646129956889158 0 0 1
2266 1 4.876857790081365 27.235845401121907 7.679475705141783 0 0 1
2251 1 4.88053915096599 24.468463512800284 7.624383854823994 0 0 1
2269 1 3.4892418756694346 28.109287450109136 5.359698855339592 0 0 1
2259 1 8.938921683348564 24.448066065355665 5.281578571456805 0 0 1
2252 1 6.230205614345329 26.29693570184981 5.328630026326175 0 0 1
2271 1 8.945061710067094 27.23280413473978 5.339087864802033 0 0 1
2255 1 7.575458147637036 25.396346576273544 7.64727395384065 0 0 1
2260 1 10.275937162635033 26.327934282351162 7.651998550246891 0 0 1
2262 1 11.6564479583851 25.382016858104603 5.294182721175876 0 0 1
2258 1 14.356832666828762 26.323238744511155 5.29414186729972 0 0 1
2257 1 12.982301811440761 24.476659533736814 7.5925309596487525 0 0 1
2270 1 12.97754803255317 27.268984695776055 7.651929095018367 0 0 1
2263 1 17.102648062322125 24.426718949678083 5.184811257976296 0 0 1
2274 1 17.061309075718828 27.24828548061423 5.273905428130149 0 0 1
2261 1 15.683385267284708 25.40620013533547 7.57112718162656 0 0 1
2264 1 18.356781714908777 26.338971715395452 7.549436229744625 0 0 1
4499 1 2.1796602732984156 31.80653252171607 7.747683936898783 0 0 1
4501 1 3.5320821115563334 30.886134103743462 5.417499214836543 0 0 1
4498 1 0.8219778537881051 29.95554553162452 5.398921406976771 0 0 1
4492 1 2.1548117870647245 29.045334272308303 7.683299529899827 0 0 1
4496 1 4.87847000823885 30.004718932125577 7.729544678550428 0 0 1
2268 1 7.578953619426765 28.174209364065696 7.695805178816518 0 0 1
4497 1 6.262390376197969 31.862826900743343 5.421160283435903 0 0 1
4491 1 6.237310261131026 29.070300027137705 5.37998631524728 0 0 1
4504 1 8.955351574290612 30.027851472947514 5.3907335433944805 0 0 1
4500 1 7.592627559803665 30.959370923735804 7.734708981301094 0 0 1
2273 1 11.654082975738733 28.181623693311195 5.35087872102423 0 0 1
4493 1 14.35517607030603 29.12747367443975 5.350346632607123 0 0 1
4494 1 10.281958110676202 29.120315860094834 7.701313445436518 0 0 1
4507 1 11.659293314953262 30.989381887849255 5.397234904583934 0 0 1
4502 1 12.981896425427784 30.074753937423527 7.700997431379512 0 0 1
4503 1 14.350203854444528 31.951593918980926 5.401044469503869 0 0 1
4505 1 10.296497795421594 31.92376190747449 7.7400532978366385 0 0 1
2275 1 19.747383236545257 28.167651733085126 5.239470611249408 0 0 1
2272 1 15.67131456416236 28.213230218683783 7.644290723116258 0 0 1
4508 1 17.044629966237295 30.07232644510046 5.348656424762435 0 0 1
4495 1 18.358917480147763 29.156779146250976 7.629913762735392 0 0 1
4506 1 15.67485179127642 31.03148157237044 7.697753679714899 0 0 1
4509 1 18.35192699007801 31.991877125449783 7.697270161523158 0 0 1
4510 1 19.706966723518928 31.01332758731318 5.344228085746629 0 0 1
2308 1 0.9198628030773468 2.385619516771393 9.786772330474717 0 0 1
2311 1 3.618343630670791 3.3308951074932422 9.772007112682141 0 0 1
2296 1 3.5997576643223135 0.5271076007878658 9.831070234116718 0 0 1
2294 1 2.271889467040541 1.4341212902966949 12.146945572002227 0 0 1
2306 1 4.955477708086834 2.3954884453988012 12.125153978722599 0 0 1
2314 1 8.974179180019714 2.4321695669202223 9.776943787139276 0 0 1
2292 1 6.289906505577023 1.4817238660176162 9.807222724096214 0 0 1
2295 1 7.630550536792824 0.5334239757286965 12.148237525638695 0 0 1
2310 1 7.6362828110017364 3.352916364870549 12.099350675242416 0 0 1
2317 1 11.658317713741711 3.372583457146626 9.738890722886882 0 0 1
2298 1 14.343818284000074 1.5175565726995868 9.747698847167698 0 0 1
2302 1 11.658485188669632 0.5596735813224953 9.804594680545783 0 0 1
2300 1 10.312053423610495 1.483206840982683 12.117797018802799 0 0 1
2312 1 12.989116680975032 2.4304493080992287 12.082341111662368 0 0 1
2318 1 17.012871762598486 2.4766400715937147 9.684570308537513 0 0 1
2304 1 18.330654143903875 1.4939942716722543 12.05415451443318 0 0 1
2301 1 15.664663403775881 0.5487975451423303 12.09979777505029 0 0 1
2316 1 15.65387890064332 3.369483609772678 12.047982963848398 0 0 1
2305 1 19.673799350703217 0.5698845749897726 9.736517260250272 0 0 1
2320 1 19.629083601683863 3.400928721084975 9.653099420447536 0 0 1
2309 1 2.2739693936558107 4.239230115302497 12.105260242665235 0 0 1
2326 1 3.6270586514119296 6.160886537341574 9.710165214714424 0 0 1
2323 1 0.9182504672173725 5.189681775656032 9.733828998054134 0 0 1
2324 1 2.2674828815897694 7.040679833553342 12.044243842833254 0 0 1
2338 1 0.9161303788983656 7.963226265504023 9.681445508994502 0 0 1
2321 1 4.960592079510931 5.204975272664782 12.075977554011217 0 0 1
2336 1 4.964228167953701 7.9858824849301335 12.032051388758806 0 0 1
2307 1 6.288338446872442 4.297300800458381 9.751187505317146 0 0 1
2322 1 6.303361876943304 7.115933696125445 9.673356119479134 0 0 1
2329 1 8.978992393440292 5.241991659029173 9.712173341095303 0 0 1
2325 1 7.640442755242182 6.15916763584856 12.045314649778804 0 0 1
2344 1 9.009418265133563 8.024098909482534 9.631591400306782 0 0 1
2328 1 14.316409430458013 7.136282577966187 9.603903549653081 0 0 1
2332 1 11.659595707759804 6.1922764261839 9.648530876950854 0 0 1
2313 1 14.332816994682034 4.320471720768931 9.67371453708973 0 0 1
2315 1 10.308415253155818 4.291599278623619 12.075190723247793 0 0 1
2330 1 10.305149500700029 7.099210416455217 12.018946771586284 0 0 1
2327 1 12.980345169070665 5.241843828426474 12.02782445222067 0 0 1
2342 1 12.95829693286468 8.029059148810935 11.978131930047704 0 0 1
2333 1 16.999270898771602 5.2709140956916345 9.618545066507183 0 0 1
2319 1 18.302481990890605 4.300445851912853 12.000702320578323 0 0 1
2331 1 15.637904555688516 6.17821573792739 11.98620254971564 0 0 1
2334 1 18.271337821477616 7.101153515079386 11.94756308661813 0 0 1
2335 1 19.603208137367744 6.197745161494471 9.564776249308446 0 0 1
2348 1 16.99785467925302 8.015907845208838 9.560252681740165 0 0 1
2356 1 3.6456422568793707 11.57270035459711 9.625307740393074 0 0 1
2353 3 0.9345565203119833 10.755244742778903 9.598940675218849 0 0 1
2341 1 3.6247514270705823 8.932303403922278 9.664020730214762 0 0 1
2339 1 2.2716542829009496 9.809190861740253 11.98765679978873 0 0 1
2351 1 4.9605271938821796 10.72871729635967 11.998636634226274 0 0 1
2359 3 9.011793199503252 10.764869253827133 9.53404983121739 0 0 1
2337 1 6.315650381986114 9.869947806347836 9.627707671839572 0 0 1
2340 1 7.66270741403767 8.950500006323189 11.97181414685326 0 0 1
2355 1 7.677640038693812 11.652461301679807 11.956742915121001 0 0 1
2362 3 11.605844940351444 11.656945538719802 9.512681165455831 0 0 1
2343 1 14.26332462636272 9.828655748055562 9.558344513308956 0 0 1
2347 1 11.663545689230086 8.934648802951294 9.599997973986765 0 0 1
2345 1 10.30821292981462 9.884109846040811 11.921224308783959 0 0 1
2357 1 12.934785168130615 10.786638805560086 11.891104022152982 0 0 1
2363 3 16.934427364722737 10.800229139515196 9.48556011987736 0 0 1
2365 3 19.54442468122968 11.677152164526477 9.478790952490375 0 0 1
2349 1 18.25133633397813 9.891530711843016 11.861768573515539 0 0 1
2346 1 15.63076052319978 8.963846817732573 11.919344115142481 0 0 1
2361 1 15.630245303850296 11.700515546527361 11.88491330152062 0 0 1
2350 1 19.585836000391463 8.9235089793294 9.548461365023986 0 0 1
2371 3 3.585798443818248 14.306618040153838 9.69717205140524 0 0 1
2368 1 0.980630136737976 13.434910750684562 9.66813905774719 0 0 1
2354 1 2.2872111140676554 12.512315293210696 12.013078008436855 0 0 1
2369 1 2.308315417934383 15.271909761377044 12.079244774608672 0 0 1
2366 1 4.952369449401178 13.447191053695287 12.02062505468077 0 0 1
2374 2 9.006242924443596 13.433508131710445 9.590179995272866 0 0 1
2352 1 6.317866303467857 12.507602053000381 9.612737495087458 0 0 1
2367 1 6.302360703056862 15.195749864873784 9.64325822679214 0 0 1
2370 1 7.642633367602992 14.357079841322339 11.991269490494162 0 0 1
2373 3 14.32435389534954 15.203921965509663 9.50431701393436 0 0 1
2377 3 11.695531982879759 14.312102656901857 9.529696283623972 0 0 1
2358 2 14.287794208843383 12.503605433252394 9.542381735111977 0 0 1
2375 1 10.326168395198131 15.252850886902639 11.936887707520834 0 0 1
2372 1 12.937873841319133 13.47189975706584 11.886612277072986 0 0 1
2360 1 10.323090990521807 12.55942313626563 11.904413170833186 0 0 1
2387 1 12.9386386838353 16.143437252175875 11.910105500055051 0 0 1
2380 3 19.659098452276 14.348210528386057 9.484004221866748 0 0 1
2378 2 16.970210584258204 13.50134955492348 9.533866821836238 0 0 1
2364 1 18.268461331129302 12.58460394588628 11.846944325512277 0 0 1
2376 1 15.582200916945801 14.366192446417376 11.898988875220445 0 0 1
2379 1 18.273486402452388 15.276475953235053 11.863635740929006 0 0 1
2381 1 4.936766785373471 16.16758289206831 12.07415341656735 0 0 1
2383 1 0.978338001213205 16.162214999337166 9.727360230361331 0 0 1