 # Bcc Nb oriented X=[11-2], Y=[111], Z=[1-10].
  
       38640  atoms
           3  atom types
 
      0.000000000000      78.750438030000  xlo xhi
      0.000000000000     128.075428130000  ylo yhi
      0.000000000000      63.653221240000  zlo zhi
 
Masses
 
            1   92.90638000             # Nb
            2   180.94788000            # Ta
            3   50.94150000             # V
 
Atoms # atomic
 
         1    1        3.937521901500       0.000000000000       2.273329602800
         2    2        5.250029464501       1.856165161031       0.000000000000
         3    2        0.000000000000       0.000000000000       0.000000000000
         4    3        1.312507563001       1.856165161031       2.273329602800
         5    2        6.562536239999       0.928083220893       2.273329602800
         6    2        2.625014338499       0.928083220893       0.000000000000
         7    1       11.812565704500       0.000000000000       2.273329602800
         8    3       13.125073267501       1.856165161031       0.000000000000
         9    2        7.875043803000       0.000000000000       0.000000000000
        10    2        9.187551366001       1.856165161031       2.273329602800
        11    3       14.437580042999       0.928083220893       2.273329602800
        12    3       10.500058141499       0.928083220893       0.000000000000
        13    2       19.687609507500       0.000000000000       2.273329602800
        14    3       21.000117070501       1.856165161031       0.000000000000
        15    3       15.750087606000       0.000000000000       0.000000000000
        16    3       17.062595169001       1.856165161031       2.273329602800
        17    2       22.312623845999       0.928083220893       2.273329602800
        18    1       18.375101944499       0.928083220893       0.000000000000
        19    3       27.562653310500       0.000000000000       2.273329602800
        20    3       28.875160873501       1.856165161031       0.000000000000
        21    3       23.625131409000       0.000000000000       0.000000000000
        22    3       24.937638972001       1.856165161031       2.273329602800
        23    3       30.187667648999       0.928083220893       2.273329602800
        24    3       26.250145747499       0.928083220893       0.000000000000
        25    1       35.437697113500       0.000000000000       2.273329602800
        26    3       36.750204676501       1.856165161031       0.000000000000
        27    3       31.500175212000       0.000000000000       0.000000000000
        28    1       32.812682775001       1.856165161031       2.273329602800
        29    1       38.062711451999       0.928083220893       2.273329602800
        30    2       34.125189550499       0.928083220893       0.000000000000
        31    3       43.312740916500       0.000000000000       2.273329602800
        32    2       44.625248479501       1.856165161031       0.000000000000
        33    1       39.375219015000       0.000000000000       0.000000000000
        34    3       40.687726578001       1.856165161031       2.273329602800
        35    3       45.937755254999       0.928083220893       2.273329602800
        36    2       42.000233353499       0.928083220893       0.000000000000
        37    3       51.187784719500       0.000000000000       2.273329602800
        38    3       52.500292282501       1.856165161031       0.000000000000
        39    2       47.250262818000       0.000000000000       0.000000000000
        40    2       48.562770381001       1.856165161031       2.273329602800
        41    1       53.812799057999       0.928083220893       2.273329602800
        42    1       49.875277156499       0.928083220893       0.000000000000
        43    2       59.062828522500       0.000000000000       2.273329602800
        44    1       60.375336085501       1.856165161031       0.000000000000
        45    1       55.125306621000       0.000000000000       0.000000000000
        46    1       56.437814184001       1.856165161031       2.273329602800
        47    1       61.687842860999       0.928083220893       2.273329602800
        48    1       57.750320959499       0.928083220893       0.000000000000
        49    1       66.937872325500       0.000000000000       2.273329602800
        50    2       68.250379888501       1.856165161031       0.000000000000
        51    2       63.000350424000       0.000000000000       0.000000000000
        52    1       64.312857987001       1.856165161031       2.273329602800
        53    2       69.562886663999       0.928083220893       2.273329602800
        54    2       65.625364762499       0.928083220893       0.000000000000
        55    1       74.812916128500       0.000000000000       2.273329602800
        56    1       76.125423691501       1.856165161031       0.000000000000
        57    2       70.875394227000       0.000000000000       0.000000000000
        58    3       72.187901790001       1.856165161031       2.273329602800
        59    3       77.437930466999       0.928083220893       2.273329602800
        60    3       73.500408565499       0.928083220893       0.000000000000
        61    1        3.937521901500       2.784248381924       2.273329602800
        62    2        5.250029464501       4.640413542955       0.000000000000
        63    2        0.000000000000       2.784248381924       0.000000000000
        64    1        1.312507563001       4.640413542955       2.273329602800
        65    3        6.562536239999       3.712331602816       2.273329602800
        66    1        2.625014338499       3.712331602816       0.000000000000
        67    3       11.812565704500       2.784248381924       2.273329602800
        68    1       13.125073267501       4.640413542955       0.000000000000
        69    1        7.875043803000       2.784248381924       0.000000000000
        70    2        9.187551366001       4.640413542955       2.273329602800
        71    2       14.437580042999       3.712331602816       2.273329602800
        72    2       10.500058141499       3.712331602816       0.000000000000
        73    1       19.687609507500       2.784248381924       2.273329602800
        74    1       21.000117070501       4.640413542955       0.000000000000
        75    3       15.750087606000       2.784248381924       0.000000000000
        76    1       17.062595169001       4.640413542955       2.273329602800
        77    3       22.312623845999       3.712331602816       2.273329602800
        78    1       18.375101944499       3.712331602816       0.000000000000
        79    3       27.562653310500       2.784248381924       2.273329602800
        80    3       28.875160873501       4.640413542955       0.000000000000
        81    3       23.625131409000       2.784248381924       0.000000000000
        82    2       24.937638972001       4.640413542955       2.273329602800
        83    1       30.187667648999       3.712331602816       2.273329602800
        84    2       26.250145747499       3.712331602816       0.000000000000
        85    3       35.437697113500       2.784248381924       2.273329602800
        86    3       36.750204676501       4.640413542955       0.000000000000
        87    1       31.500175212000       2.784248381924       0.000000000000
        88    3       32.812682775001       4.640413542955       2.273329602800
        89    1       38.062711451999       3.712331602816       2.273329602800
        90    2       34.125189550499       3.712331602816       0.000000000000
        91    2       43.312740916500       2.784248381924       2.273329602800
        92    1       44.625248479501       4.640413542955       0.000000000000
        93    2       39.375219015000       2.784248381924       0.000000000000
        94    2       40.687726578001       4.640413542955       2.273329602800
        95    2       45.937755254999       3.712331602816       2.273329602800
        96    1       42.000233353499       3.712331602816       0.000000000000
        97    3       51.187784719500       2.784248381924       2.273329602800
        98    1       52.500292282501       4.640413542955       0.000000000000
        99    1       47.250262818000       2.784248381924       0.000000000000
       100    1       48.562770381001       4.640413542955       2.273329602800
       101    1       53.812799057999       3.712331602816       2.273329602800
       102    2       49.875277156499       3.712331602816       0.000000000000
       103    3       59.062828522500       2.784248381924       2.273329602800
       104    3       60.375336085501       4.640413542955       0.000000000000
       105    3       55.125306621000       2.784248381924       0.000000000000
       106    3       56.437814184001       4.640413542955       2.273329602800
       107    2       61.687842860999       3.712331602816       2.273329602800
       108    1       57.750320959499       3.712331602816       0.000000000000
       109    3       66.937872325500       2.784248381924       2.273329602800
       110    1       68.250379888501       4.640413542955       0.000000000000
       111    1       63.000350424000       2.784248381924       0.000000000000
       112    1       64.312857987001       4.640413542955       2.273329602800
       113    2       69.562886663999       3.712331602816       2.273329602800
       114    3       65.625364762499       3.712331602816       0.000000000000
       115    3       74.812916128500       2.784248381924       2.273329602800
       116    3       76.125423691501       4.640413542955       0.000000000000
       117    2       70.875394227000       2.784248381924       0.000000000000
       118    3       72.187901790001       4.640413542955       2.273329602800
       119    2       77.437930466999       3.712331602816       2.273329602800
       120    2       73.500408565499       3.712331602816       0.000000000000
       121    2        3.937521901500       5.568496763847       2.273329602800
       122    1        5.250029464501       7.424661924879       0.000000000000
       123    1        0.000000000000       5.568496763847       0.000000000000
       124    2        1.312507563001       7.424661924879       2.273329602800
       125    2        6.562536239999       6.496579984740       2.273329602800
       126    3        2.625014338499       6.496579984740       0.000000000000
       127    2       11.812565704500       5.568496763847       2.273329602800
       128    1       13.125073267501       7.424661924879       0.000000000000
       129    2        7.875043803000       5.568496763847       0.000000000000
       130    2        9.187551366001       7.424661924879       2.273329602800
       131    1       14.437580042999       6.496579984740       2.273329602800
       132    1       10.500058141499       6.496579984740       0.000000000000
       133    3       19.687609507500       5.568496763847       2.273329602800
       134    3       21.000117070501       7.424661924879       0.000000000000
       135    2       15.750087606000       5.568496763847       0.000000000000
       136    2       17.062595169001       7.424661924879       2.273329602800
       137    2       22.312623845999       6.496579984740       2.273329602800
       138    3       18.375101944499       6.496579984740       0.000000000000
       139    3       27.562653310500       5.568496763847       2.273329602800
       140    3       28.875160873501       7.424661924879       0.000000000000
       141    3       23.625131409000       5.568496763847       0.000000000000
       142    3       24.937638972001       7.424661924879       2.273329602800
       143    1       30.187667648999       6.496579984740       2.273329602800
       144    2       26.250145747499       6.496579984740       0.000000000000
       145    2       35.437697113500       5.568496763847       2.273329602800
       146    1       36.750204676501       7.424661924879       0.000000000000
       147    3       31.500175212000       5.568496763847       0.000000000000
       148    2       32.812682775001       7.424661924879       2.273329602800
       149    3       38.062711451999       6.496579984740       2.273329602800
       150    2       34.125189550499       6.496579984740       0.000000000000
       151    2       43.312740916500       5.568496763847       2.273329602800
       152    2       44.625248479501       7.424661924879       0.000000000000
       153    2       39.375219015000       5.568496763847       0.000000000000
       154    3       40.687726578001       7.424661924879       2.273329602800
       155    3       45.937755254999       6.496579984740       2.273329602800
       156    2       42.000233353499       6.496579984740       0.000000000000
       157    1       51.187784719500       5.568496763847       2.273329602800
       158    2       52.500292282501       7.424661924879       0.000000000000
       159    3       47.250262818000       5.568496763847       0.000000000000
       160    3       48.562770381001       7.424661924879       2.273329602800
       161    3       53.812799057999       6.496579984740       2.273329602800
       162    3       49.875277156499       6.496579984740       0.000000000000
       163    2       59.062828522500       5.568496763847       2.273329602800
       164    1       60.375336085501       7.424661924879       0.000000000000
       165    1       55.125306621000       5.568496763847       0.000000000000
       166    1       56.437814184001       7.424661924879       2.273329602800
       167    1       61.687842860999       6.496579984740       2.273329602800
       168    2       57.750320959499       6.496579984740       0.000000000000
       169    1       66.937872325500       5.568496763847       2.273329602800
       170    3       68.250379888501       7.424661924879       0.000000000000
       171    2       63.000350424000       5.568496763847       0.000000000000
       172    1       64.312857987001       7.424661924879       2.273329602800
       173    2       69.562886663999       6.496579984740       2.273329602800
       174    2       65.625364762499       6.496579984740       0.000000000000
       175    1       74.812916128500       5.568496763847       2.273329602800
       176    3       76.125423691501       7.424661924879       0.000000000000
       177    2       70.875394227000       5.568496763847       0.000000000000
       178    1       72.187901790001       7.424661924879       2.273329602800
       179    1       77.437930466999       6.496579984740       2.273329602800
       180    2       73.500408565499       6.496579984740       0.000000000000
       181    2        3.937521901500       8.352745145771       2.273329602800
       182    1        5.250029464501      10.208910306802       0.000000000000
       183    1        0.000000000000       8.352745145771       0.000000000000
       184    3        1.312507563001      10.208910306802       2.273329602800
       185    3        6.562536239999       9.280828366664       2.273329602800
       186    1        2.625014338499       9.280828366664       0.000000000000
       187    2       11.812565704500       8.352745145771       2.273329602800
       188    3       13.125073267501      10.208910306802       0.000000000000
       189    3        7.875043803000       8.352745145771       0.000000000000
       190    2        9.187551366001      10.208910306802       2.273329602800
       191    1       14.437580042999       9.280828366664       2.273329602800
       192    1       10.500058141499       9.280828366664       0.000000000000
       193    2       19.687609507500       8.352745145771       2.273329602800
       194    3       21.000117070501      10.208910306802       0.000000000000
       195    1       15.750087606000       8.352745145771       0.000000000000
       196    3       17.062595169001      10.208910306802       2.273329602800
       197    2       22.312623845999       9.280828366664       2.273329602800
       198    2       18.375101944499       9.280828366664       0.000000000000
       199    3       27.562653310500       8.352745145771       2.273329602800
       200    2       28.875160873501      10.208910306802       0.000000000000
       201    3       23.625131409000       8.352745145771       0.000000000000
       202    1       24.937638972001      10.208910306802       2.273329602800
       203    1       30.187667648999       9.280828366664       2.273329602800
       204    3       26.250145747499       9.280828366664       0.000000000000
       205    3       35.437697113500       8.352745145771       2.273329602800
       206    3       36.750204676501      10.208910306802       0.000000000000
       207    1       31.500175212000       8.352745145771       0.000000000000
       208    1       32.812682775001      10.208910306802       2.273329602800
       209    2       38.062711451999       9.280828366664       2.273329602800
       210    2       34.125189550499       9.280828366664       0.000000000000
       211    2       43.312740916500       8.352745145771       2.273329602800
       212    1       44.625248479501      10.208910306802       0.000000000000
       213    1       39.375219015000       8.352745145771       0.000000000000
       214    1       40.687726578001      10.208910306802       2.273329602800
       215    1       45.937755254999       9.280828366664       2.273329602800
       216    2       42.000233353499       9.280828366664       0.000000000000
       217    2       51.187784719500       8.352745145771       2.273329602800
       218    2       52.500292282501      10.208910306802       0.000000000000
       219    1       47.250262818000       8.352745145771       0.000000000000
       220    2       48.562770381001      10.208910306802       2.273329602800
       221    2       53.812799057999       9.280828366664       2.273329602800
       222    2       49.875277156499       9.280828366664       0.000000000000
       223    2       59.062828522500       8.352745145771       2.273329602800
       224    1       60.375336085501      10.208910306802       0.000000000000
       225    2       55.125306621000       8.352745145771       0.000000000000
       226    1       56.437814184001      10.208910306802       2.273329602800
       227    3       61.687842860999       9.280828366664       2.273329602800
       228    3       57.750320959499       9.280828366664       0.000000000000
       229    2       66.937872325500       8.352745145771       2.273329602800
       230    1       68.250379888501      10.208910306802       0.000000000000
       231    3       63.000350424000       8.352745145771       0.000000000000
       232    1       64.312857987001      10.208910306802       2.273329602800
       233    2       69.562886663999       9.280828366664       2.273329602800
       234    1       65.625364762499       9.280828366664       0.000000000000
       235    3       74.812916128500       8.352745145771       2.273329602800
       236    1       76.125423691501      10.208910306802       0.000000000000
       237    2       70.875394227000       8.352745145771       0.000000000000
       238    3       72.187901790001      10.208910306802       2.273329602800
       239    2       77.437930466999       9.280828366664       2.273329602800
       240    1       73.500408565499       9.280828366664       0.000000000000
       241    3        3.937521901500      11.136993527695       2.273329602800
       242    1        5.250029464501      12.993159969480       0.000000000000
       243    3        0.000000000000      11.136993527695       0.000000000000
       244    2        1.312507563001      12.993159969480       2.273329602800
       245    2        6.562536239999      12.065076748588       2.273329602800
       246    2        2.625014338499      12.065076748588       0.000000000000
       247    2       11.812565704500      11.136993527695       2.273329602800
       248    2       13.125073267501      12.993159969480       0.000000000000
       249    3        7.875043803000      11.136993527695       0.000000000000
       250    3        9.187551366001      12.993159969480       2.273329602800
       251    1       14.437580042999      12.065076748588       2.273329602800
       252    3       10.500058141499      12.065076748588       0.000000000000
       253    3       19.687609507500      11.136993527695       2.273329602800
       254    3       21.000117070501      12.993159969480       0.000000000000
       255    1       15.750087606000      11.136993527695       0.000000000000
       256    3       17.062595169001      12.993159969480       2.273329602800
       257    1       22.312623845999      12.065076748588       2.273329602800
       258    1       18.375101944499      12.065076748588       0.000000000000
       259    1       27.562653310500      11.136993527695       2.273329602800
       260    3       28.875160873501      12.993159969480       0.000000000000
       261    2       23.625131409000      11.136993527695       0.000000000000
       262    2       24.937638972001      12.993159969480       2.273329602800
       263    1       30.187667648999      12.065076748588       2.273329602800
       264    1       26.250145747499      12.065076748588       0.000000000000
       265    3       35.437697113500      11.136993527695       2.273329602800
       266    2       36.750204676501      12.993159969480       0.000000000000
       267    3       31.500175212000      11.136993527695       0.000000000000
       268    3       32.812682775001      12.993159969480       2.273329602800
       269    3       38.062711451999      12.065076748588       2.273329602800
       270    3       34.125189550499      12.065076748588       0.000000000000
       271    1       43.312740916500      11.136993527695       2.273329602800
       272    3       44.625248479501      12.993159969480       0.000000000000
       273    1       39.375219015000      11.136993527695       0.000000000000
       274    3       40.687726578001      12.993159969480       2.273329602800
       275    2       45.937755254999      12.065076748588       2.273329602800
       276    1       42.000233353499      12.065076748588       0.000000000000
       277    1       51.187784719500      11.136993527695       2.273329602800
       278    2       52.500292282501      12.993159969480       0.000000000000
       279    1       47.250262818000      11.136993527695       0.000000000000
       280    2       48.562770381001      12.993159969480       2.273329602800
       281    1       53.812799057999      12.065076748588       2.273329602800
       282    1       49.875277156499      12.065076748588       0.000000000000
       283    1       59.062828522500      11.136993527695       2.273329602800
       284    3       60.375336085501      12.993159969480       0.000000000000
       285    2       55.125306621000      11.136993527695       0.000000000000
       286    3       56.437814184001      12.993159969480       2.273329602800
       287    2       61.687842860999      12.065076748588       2.273329602800
       288    1       57.750320959499      12.065076748588       0.000000000000
       289    1       66.937872325500      11.136993527695       2.273329602800
       290    2       68.250379888501      12.993159969480       0.000000000000
       291    1       63.000350424000      11.136993527695       0.000000000000
       292    2       64.312857987001      12.993159969480       2.273329602800
       293    2       69.562886663999      12.065076748588       2.273329602800
       294    3       65.625364762499      12.065076748588       0.000000000000
       295    2       74.812916128500      11.136993527695       2.273329602800
       296    2       76.125423691501      12.993159969480       0.000000000000
       297    3       70.875394227000      11.136993527695       0.000000000000
       298    1       72.187901790001      12.993159969480       2.273329602800
       299    3       77.437930466999      12.065076748588       2.273329602800
       300    2       73.500408565499      12.065076748588       0.000000000000
       301    3        3.937521901500      13.921241909619       2.273329602800
       302    1        5.250029464501      15.777408351404       0.000000000000
       303    2        0.000000000000      13.921241909619       0.000000000000
       304    3        1.312507563001      15.777408351404       2.273329602800
       305    1        6.562536239999      14.849325130511       2.273329602800
       306    3        2.625014338499      14.849325130511       0.000000000000
       307    3       11.812565704500      13.921241909619       2.273329602800
       308    3       13.125073267501      15.777408351404       0.000000000000
       309    2        7.875043803000      13.921241909619       0.000000000000
       310    1        9.187551366001      15.777408351404       2.273329602800
       311    2       14.437580042999      14.849325130511       2.273329602800
       312    3       10.500058141499      14.849325130511       0.000000000000
       313    3       19.687609507500      13.921241909619       2.273329602800
       314    3       21.000117070501      15.777408351404       0.000000000000
       315    2       15.750087606000      13.921241909619       0.000000000000
       316    3       17.062595169001      15.777408351404       2.273329602800
       317    1       22.312623845999      14.849325130511       2.273329602800
       318    3       18.375101944499      14.849325130511       0.000000000000
       319    3       27.562653310500      13.921241909619       2.273329602800
       320    3       28.875160873501      15.777408351404       0.000000000000
       321    2       23.625131409000      13.921241909619       0.000000000000
       322    1       24.937638972001      15.777408351404       2.273329602800
       323    3       30.187667648999      14.849325130511       2.273329602800
       324    3       26.250145747499      14.849325130511       0.000000000000
       325    1       35.437697113500      13.921241909619       2.273329602800
       326    2       36.750204676501      15.777408351404       0.000000000000
       327    3       31.500175212000      13.921241909619       0.000000000000
       328    2       32.812682775001      15.777408351404       2.273329602800
       329    2       38.062711451999      14.849325130511       2.273329602800
       330    1       34.125189550499      14.849325130511       0.000000000000
       331    1       43.312740916500      13.921241909619       2.273329602800
       332    1       44.625248479501      15.777408351404       0.000000000000
       333    1       39.375219015000      13.921241909619       0.000000000000
       334    1       40.687726578001      15.777408351404       2.273329602800
       335    1       45.937755254999      14.849325130511       2.273329602800
       336    1       42.000233353499      14.849325130511       0.000000000000
       337    2       51.187784719500      13.921241909619       2.273329602800
       338    1       52.500292282501      15.777408351404       0.000000000000
       339    1       47.250262818000      13.921241909619       0.000000000000
       340    3       48.562770381001      15.777408351404       2.273329602800
       341    3       53.812799057999      14.849325130511       2.273329602800
       342    3       49.875277156499      14.849325130511       0.000000000000
       343    2       59.062828522500      13.921241909619       2.273329602800
       344    3       60.375336085501      15.777408351404       0.000000000000
       345    3       55.125306621000      13.921241909619       0.000000000000
       346    2       56.437814184001      15.777408351404       2.273329602800
       347    3       61.687842860999      14.849325130511       2.273329602800
       348    1       57.750320959499      14.849325130511       0.000000000000
       349    1       66.937872325500      13.921241909619       2.273329602800
       350    1       68.250379888501      15.777408351404       0.000000000000
       351    1       63.000350424000      13.921241909619       0.000000000000
       352    3       64.312857987001      15.777408351404       2.273329602800
       353    1       69.562886663999      14.849325130511       2.273329602800
       354    2       65.625364762499      14.849325130511       0.000000000000
       355    1       74.812916128500      13.921241909619       2.273329602800
       356    2       76.125423691501      15.777408351404       0.000000000000
       357    1       70.875394227000      13.921241909619       0.000000000000
       358    3       72.187901790001      15.777408351404       2.273329602800
       359    1       77.437930466999      14.849325130511       2.273329602800
       360    3       73.500408565499      14.849325130511       0.000000000000
       361    1        3.937521901500      16.705490291542       2.273329602800
       362    1        5.250029464501      18.561656733328       0.000000000000
       363    3        0.000000000000      16.705490291542       0.000000000000
       364    1        1.312507563001      18.561656733328       2.273329602800
       365    1        6.562536239999      17.633573512435       2.273329602800
       366    3        2.625014338499      17.633573512435       0.000000000000
       367    3       11.812565704500      16.705490291542       2.273329602800
       368    2       13.125073267501      18.561656733328       0.000000000000
       369    3        7.875043803000      16.705490291542       0.000000000000