LAMMPS data file via write_data, version 2 Aug 2023, timestep = 50041, units = metal

38640 atoms
3 atom types

0.05263556408563617 78.82093415591434 xlo xhi
0.10785416119871352 128.167828648799 ylo yhi
0.05314099365473864 63.699606396344976 zlo zhi

Masses

1 92.90600000000001
2 180.948
3 50.942

Atoms # atomic

4 3 1.2898904731442509 1.896861030075932 2.347398964594185 0 0 0
6 3 2.685050545283714 0.9987115321717092 0.09859177485619507 0 0 0
1 1 4.018060247432001 0.17344768569853655 2.4238105700413395 0 0 0
61 1 3.968912026666658 2.8167071029978143 2.3565720237914833 0 0 0
2 2 5.2507802380373185 1.9436755266707875 0.09335152259295637 0 0 0
5 3 6.691206847175856 0.9899251417914887 2.4053200157613595 0 0 0
10 2 9.254670062369982 1.8874438367462645 2.378816928941402 0 0 0
12 2 10.588868919623259 0.939907966163249 0.07814245366629809 0 0 0
67 1 11.926461150039804 2.727394473865788 2.3766335512865964 0 0 0
11 1 14.505353091153225 0.9206921188550019 2.425876050415411 0 0 0
8 1 13.297180109709785 1.819486841318257 0.08474412257122374 0 0 0
16 1 17.135802811687977 1.8715547344027859 2.3292688846832204 0 0 0
64 1 1.437650815264191 4.603106428186735 2.2769582797646275 0 0 0
65 3 6.602598000090316 3.7057898539315945 2.3356835570308845 0 0 0
121 1 3.983066583358413 5.567705894748994 2.3104432539934594 0 0 0
62 1 5.2975590864936795 4.683703589745502 0.05856554124589662 0 0 0
70 1 9.217735940163472 4.681518447543737 2.446392329363376 0 0 0
72 2 10.485125893707753 3.7711936727291535 0.13635197839591962 0 0 0
127 2 11.8682326234277 5.575034742056954 2.3799695276554433 0 0 0
71 1 14.485597588254619 3.6558241006354324 2.4095749670804816 0 0 0
131 1 14.517124046565955 6.438519695599002 2.4486363607174497 0 0 0
68 3 13.244119137625171 4.599379732249263 0.07129321037186219 0 0 0
76 2 17.077234766743505 4.693925003259132 2.328197268241634 0 0 0
138 3 18.523856746609926 6.454494346822453 0.08425893362447413 0 0 0
133 3 19.739192166726813 5.588052385028476 2.2704970537749785 0 0 0
78 3 18.54443675389724 3.776972663980328 0.058568980232987414 0 0 0
124 2 1.3519416014871775 7.43984390290739 2.2659328033681105 0 0 0
186 3 2.6886353571063677 9.337443270808711 0.10012740307911418 0 0 0
122 1 5.281889827415805 7.487654490795505 0.060202032258721304 0 0 0
125 1 6.555366689817623 6.537147850374027 2.3433170207038034 0 0 0
181 3 3.9110315560425675 8.454699166013611 2.3361442941144754 0 0 0
185 1 6.558124818083997 9.355500592924413 2.331740271534452 0 0 0
130 2 9.248816400408222 7.4426663884032696 2.3569046588238223 0 0 0
187 2 11.878733246020438 8.444714690254981 2.3553414941309936 0 0 0
132 3 10.640830408602406 6.569556131121606 0.13980280059894393 0 0 0
128 2 13.303299459016571 7.363634160295203 0.12989370633201294 0 0 0
191 2 14.585639591615749 9.287082338829046 2.3238073900446476 0 0 0
136 3 17.143012452926815 7.460903166731059 2.278401267657677 0 0 0
184 2 1.4023383087477757 10.29198498867009 2.3053637541352376 0 0 0
246 1 2.6505104299807054 12.134138366300933 0.1373231419711127 0 0 0
182 1 5.293927562087293 10.203638361063597 0.1522562198272427 0 0 0
241 3 4.048794857890473 11.202604637990515 2.4111295184303354 0 0 0
245 1 6.562990737474668 12.085826641520692 2.383506792716452 0 0 0
190 2 9.241266709200014 10.278888651355171 2.362557505545818 0 0 0
249 3 7.900277351916207 11.276422247459177 0.10382999212957145 0 0 0
247 1 11.850998019114964 11.285441234570403 2.349999310008001 0 0 0
252 1 10.565498239370408 12.205518868129516 0.07567593702800784 0 0 0
251 1 14.496597170441218 12.119877286342222 2.3885468810917883 0 0 0
196 2 17.251750494970313 10.283860664850213 2.3378543116705117 0 0 0
258 2 18.4856657615855 12.176808027537191 0.07850304971235877 0 0 0
244 1 1.4901875054097022 13.043410044062675 2.3639996879525738 0 0 0
303 2 0.10029129929274398 13.99585270694707 0.08682635510254252 0 0 0
304 2 1.4230854506663724 15.88223869159002 2.390072784982077 0 0 0
306 2 2.74737081831654 14.958949424840602 0.08444590752596119 0 0 0
242 2 5.284735722727026 13.068949128492527 0.11014979729315325 0 0 0
301 3 4.018636288781839 14.048609026882678 2.3984865558017345 0 0 0
302 2 5.40166006116556 15.874298616499205 0.0982740586427481 0 0 0
305 2 6.651736731480491 14.864959328933617 2.5400427712708544 0 0 0
250 2 9.201340518708124 13.12110829155112 2.3917026788375977 0 0 0
310 3 9.334564628388625 15.883987320777065 2.333189825875179 0 0 0
309 2 7.9495348612402195 14.104405056224099 0.08877916855165298 0 0 0
307 2 11.853836590107651 14.08005597833577 2.3852436126891283 0 0 0
16873 2 19.71104382929022 14.046256505686294 29.47528687016974 0 0 0
311 1 14.491826794028 14.852972630043944 2.4122495546645055 0 0 0
313 3 19.70418340573607 14.055750332421848 2.2856830472624203 0 0 0
256 3 17.145658295282566 13.098938299377954 2.3417843140922665 0 0 0
316 2 17.014532174123556 15.879250107603053 2.257560786874582 0 0 0
318 3 18.5238271224307 14.950205361192742 0.09175296951963818 0 0 0
2766 3 2.5916920094365468 1.0304591050754524 4.591584641388899 0 0 0
2762 2 5.267015836871012 1.8815478592746402 4.616585605835406 0 0 0
2829 2 7.895526982294868 2.809364427491767 4.637860076394215 0 0 0
2772 3 10.503210581988315 0.9069985120744775 4.6953660298219235 0 0 0
2768 3 13.120035494459849 1.8183121350187714 4.748798477571212 0 0 0
2835 2 15.837112277028446 2.804583338244469 4.657041199538148 0 0 0
2778 2 18.336488956397616 0.972111480405075 4.665196019365864 0 0 0
2826 3 2.6698071587531067 3.6733185170847236 4.585409217211824 0 0 0
2886 2 2.6932925325770793 6.499793217725928 4.557353538851252 0 0 0
2822 3 5.276699238771052 4.611276098584054 4.6360359324106915 0 0 0
2889 1 7.904168945357645 5.606939445193859 4.652476464466591 0 0 0
2832 2 10.580919827712622 3.6999310917583967 4.649693922063021 0 0 0
2828 2 13.215949332568142 4.651889890551849 4.666940154079019 0 0 0
2895 3 15.81473530569482 5.60101889400556 4.711273838752295 0 0 0
2838 1 18.467528458168108 3.769126909535353 4.657502357622211 0 0 0
2898 2 18.422258923085675 6.501672982982318 4.58133050527902 0 0 0
2946 2 2.7297887502864997 9.385000799070964 4.612051912726005 0 0 0
2882 2 5.262032734645018 7.494606849638887 4.5820522016756025 0 0 0
2949 2 7.8949959613868215 8.451165881139174 4.602137761719802 0 0 0
2892 3 10.671722988501209 6.572387577958687 4.65344869285282 0 0 0
2952 2 10.558314479090644 9.36294948485507 4.655887735591955 0 0 0
2888 3 13.194522610080968 7.493200628619182 4.604231069191213 0 0 0
2955 1 15.93115197611671 8.356708708750032 4.62119847154542 0 0 0
2958 3 18.649031403421585 9.316472778835823 4.570257856141067 0 0 0
3003 2 0.13858689125414803 11.225116127836351 4.597690633080429 0 0 0
3006 3 2.7832178115015886 12.172292539049495 4.557154028833363 0 0 0
2942 3 5.308661486190945 10.350944414212831 4.621507296968685 0 0 0
3009 3 7.941189477361839 11.295107176953382 4.614248895919779 0 0 0
3012 3 10.562258345897968 12.185196223768928 4.649670147835016 0 0 0
2948 2 13.19277365157016 10.353077005213603 4.630051700338724 0 0 0
3015 1 15.899970577171135 11.090918143763979 4.5571924276924465 0 0 0
3018 1 18.48309054262371 12.2007018833237 4.5261608832204105 0 0 0
3063 2 0.16364396134026768 14.064282714024479 4.558781783060631 0 0 0
3066 3 2.7735317114383604 14.953209422637897 4.653759731638315 0 0 0
3002 3 5.251201266773873 13.013579605908275 4.59976931809794 0 0 0
3062 1 5.257151518911208 15.89570442199256 4.628858977950431 0 0 0
3069 1 8.044348703398692 14.041047535107147 4.684377878868633 0 0 0
3072 3 10.505602607952824 14.97997711551959 4.608318963472411 0 0 0
3008 1 13.112724186553628 13.13513259587403 4.669663943964533 0 0 0
3068 3 13.129725715124476 15.855511805451235 4.583483938742932 0 0 0
3075 3 15.844589503521984 13.937458809309897 4.667501380721904 0 0 0
3078 3 18.449043974180704 14.957006515349642 4.477593103562298 0 0 0
2764 2 1.3419908121036865 1.8890489854671495 6.831107023872313 0 0 0
5526 2 2.663484258055351 0.9636406253868685 9.18009653081015 0 0 0
2821 3 4.031296047553239 2.80564489035323 6.887424781908825 0 0 0
5522 3 5.252154138140279 1.925903199956244 9.085662952177406 0 0 0
2765 2 6.64006499036732 0.9607255143122383 6.902031413020648 0 0 0
2770 2 9.263400081610802 1.9076277897314402 6.9003483422830065 0 0 0
5529 1 8.01350852021338 0.1362961588769213 9.142591279219918 0 0 0
5589 3 7.823740875794094 2.837340229603651 9.161210929026362 0 0 0
2827 3 11.893086717198912 2.795478502127027 6.870786076937755 0 0 0
5532 3 10.597591898671618 0.9635344804986424 9.148025771334238 0 0 0
2771 1 14.477547464980269 0.9473366946299369 6.86200053173109 0 0 0
5528 3 13.211925748540333 1.8567447922888982 9.052840742359516 0 0 0
5535 3 15.803965943314651 0.14886718211353545 9.0138755411493 0 0 0
5595 3 15.77434941819687 2.8759111799511143 9.157235490707528 0 0 0
2833 1 19.686194284994716 2.864008477650471 6.87257984080367 0 0 0
2776 3 17.00855133382642 1.9184262482526453 6.976411117451217 0 0 0
5538 1 18.36224244697083 1.0276524698638445 9.118451102669281 0 0 0
2824 1 1.336309004686259 4.640226671180935 6.827277127787969 0 0 0
5586 2 2.670880559321043 3.7013599473447014 9.157740292322787 0 0 0
2825 3 6.57761574557599 3.6877082961786662 6.883018377858032 0 0 0
2881 1 3.9847891077103372 5.540004582905114 6.804207720045956 0 0 0
5582 2 5.2919648479361445 4.708876417393008 9.130992941164727 0 0 0
2885 1 6.580682185008553 6.482822731040246 6.849963200802385 0 0 0
2830 1 9.242567084828167 4.635595061456588 6.903731560810753 0 0 0
5649 3 7.914553567513233 5.595421566059446 9.159380025360274 0 0 0
2887 3 11.870138906747878 5.5349684591493125 6.813314163623924 0 0 0
5592 1 10.48441609706905 3.6791992934058557 9.038546418607677 0 0 0
5588 2 13.154156603483948 4.659860219432928 9.162988127093628 0 0 0
5652 2 10.628625206028072 6.478448309416622 9.193432688403483 0 0 0
2831 2 14.50129985313264 3.7014794427609177 6.930512420767351 0 0 0
5655 3 15.790332226057116 5.541598947638992 9.138777863504309 0 0 0
2891 2 14.488436563496922 6.50455952106045 6.928232031289979 0 0 0
2893 3 19.70554000578768 5.509867343231814 6.83731161868504 0 0 0
2836 3 17.09350932150918 4.685411574903034 6.8990301498477615 0 0 0
5598 3 18.315813124568486 3.853620082465028 9.106199093306387 0 0 0
5646 2 2.7017547738306917 6.514175164859311 9.16568813815726 0 0 0
2884 2 1.3370890375665265 7.452278925302447 6.821870363760937 0 0 0
5706 1 2.7349557990088242 9.363170315402913 9.062965416937297 0 0 0
2941 3 4.006649161923575 8.378398706087697 6.825716088734256 0 0 0
2945 1 6.5780993576040965 9.45151548073687 6.824547914127361 0 0 0
5642 1 5.352457867282925 7.499577952304598 9.182218325984179 0 0 0
2890 2 9.276554367685112 7.422746349880022 6.885471578187988 0 0 0
5709 1 7.899207832818835 8.353894325115114 9.10495230105693 0 0 0
2947 2 11.928470416380593 8.336818472556454 6.8929734348697504 0 0 0
5712 1 10.55668653642867 9.365892466307475 9.103096008015655 0 0 0
2951 2 14.515614242608988 9.361995572216186 6.896099807237543 0 0 0
5648 1 13.270922147851005 7.484937930742647 9.159088644364147 0 0 0
5715 3 15.85773221073305 8.370270124462614 9.192335798458839 0 0 0
2953 1 19.696672796282986 8.336801113067617 6.9526934902391 0 0 0
2896 1 17.129449189622623 7.477940665916676 6.850130998898121 0 0 0
5658 1 18.377194755357547 6.541919449247479 9.131793535156786 0 0 0
5718 1 18.37955041768363 9.330468560123492 9.196488253274715 0 0 0
2944 1 1.3950295473391015 10.29154879625188 6.8718480988472095 0 0 0
5766 1 2.8373584607374602 12.100490117139165 9.065072996631777 0 0 0
5763 1 0.06894352288024251 11.22213001579769 9.133849985206634 0 0 0
3001 3 4.06138530949779 11.193378520220419 6.7500295625024105 0 0 0
5702 1 5.3860813682422215 10.357673733820986 8.978287408568741 0 0 0
3005 3 6.641331467409126 12.258383477284525 6.770639209348689 0 0 0
2950 1 9.151103363512926 10.311616307221744 6.757034339147019 0 0 0
5769 2 8.12208178907862 11.24906475613575 9.023460392409632 0 0 0
3007 3 11.758829252004732 11.183808642587406 6.9057560241392615 0 0 0
5772 1 10.586017186438669 12.385162353048907 9.070981960570638 0 0 0
3011 1 14.447913293589975 12.198994041573648 6.884992239635153 0 0 0
5708 1 13.202511092339591 10.310617058984635 9.168715720291491 0 0 0
5775 1 15.781167954292314 11.21306838560086 9.206074117956378 0 0 0
2956 2 17.173113932494118 10.347186047035246 6.869160346335967 0 0 0
5778 3 18.47800083680421 12.174178249182749 9.143011916036494 0 0 0
3004 2 1.529092454377868 13.161870797225156 6.948643216108897 0 0 0
3064 3 1.4690485463539615 15.9803650957683 6.789125755740205 0 0 0
5826 1 2.77472182322704 15.012787270749136 9.05088877053821 0 0 0
3061 1 4.104522775590774 14.105498254038384 6.722551864176634 0 0 0
5762 3 5.382307822773403 13.14746032234872 8.94549455993382 0 0 0
5822 1 5.325321327525619 15.889790018887478 9.00617945610911 0 0 0
3065 3 6.689448355757694 15.030489193742701 6.717156402541204 0 0 0
3010 3 9.229673952117526 13.184518929553079 6.770570642478076 0 0 0
3070 3 9.278748630135137 15.910084555613057 6.832101689918568 0 0 0
5829 2 7.983716359000811 14.057026956639007 9.008424811459998 0 0 0
3067 2 11.819133962461894 14.060435902039087 6.832840830526962 0 0 0
5832 3 10.502606837367773 15.055282135188175 9.047353232138317 0 0 0
5768 3 13.160679590097049 13.16430831244121 9.203970504520708 0 0 0
5828 1 13.15730793727106 15.98231441830479 9.086444717767266 0 0 0
3071 1 14.416755388334407 15.028027285406592 6.857257432434861 0 0 0
5835 2 15.811646007577329 14.056180873820432 9.001363638201127 0 0 0
3016 1 17.247807533535113 13.105810857607347 6.875542908129039 0 0 0
3076 2 17.10696172142727 15.900318090823424 6.832144794647067 0 0 0
5838 2 18.46365762134647 14.99793571866166 9.151708825383016 0 0 0
3073 2 19.73759000866657 14.057451927460534 6.79984570489616 0 0 0
5524 3 1.3694773994946143 1.8551860553923223 11.48169901218084 0 0 0
5525 2 6.6021888455553235 0.9325664291557892 11.4022197499336 0 0 0
5581 2 4.001127503238605 2.7550485330196226 11.414091029002327 0 0 0
5530 3 9.27053875612885 1.8191759366958284 11.440669398768605 0 0 0
5587 2 11.82692504049847 2.83430371588383 11.290455037024175 0 0 0
5531 1 14.54230481387386 1.0418878985651885 11.227322083403635 0 0 0
5536 3 17.11482149358922 1.9521798815100952 11.329834706946487 0 0 0
5593 2 19.725834376271436 2.8491130144158814 11.359896823365075 0 0 0
5584 2 1.3084761134745504 4.631547945907885 11.414238388775665 0 0 0
5585 1 6.6059756717844325 3.7055977934858872 11.320163955793097 0 0 0
5641 3 3.9905342171771068 5.596546029986823 11.490954557516805 0 0 0
5590 2 9.209453094313327 4.649492093448822 11.337116197826594 0 0 0
5645 3 6.661250994181903 6.496282914387211 11.426738681720648 0 0 0
5647 1 11.872177832092865 5.6213287822834 11.496738763467084 0 0 0
5591 3 14.52280005290984 3.736071828246854 11.384167710873903 0 0 0
5596 1 17.092087353654662 4.703640195914631 11.246302795506336 0 0 0
5644 1 1.3768314393806296 7.4886947491424625 11.41024965665557 0 0 0
5701 1 4.129547802924546 8.439293229630177 11.31172034364967 0 0 0
5705 1 6.7352272983482875 9.382457894559591 11.268600828587367 0 0 0
5650 3 9.178420691830727 7.5736641937680815 11.386218113952554 0 0 0
5707 1 11.92904340853318 8.434301771549878 11.416889088921977 0 0 0
5651 3 14.547360210521282 6.513714368617986 11.3515573116209 0 0 0
5711 1 14.589303821159358 9.327046005662341 11.444709917771897 0 0 0
5656 3 17.042274671805515 7.459689527650657 11.437279317638568 0 0 0
5713 1 19.635722096199036 8.537001352675711 11.467566583892717 0 0 0
5704 1 1.3756844803481385 10.317345985861865 11.343754550228995 0 0 0
5761 3 4.0367706759817406 11.224015820929438 11.26460677216027 0 0 0
5765 2 6.671223834336494 12.203709854081854 11.312279623329946 0 0 0
5710 1 9.368517382539071 10.456977007159033 11.370794122105115 0 0 0
5767 1 11.91327598030692 11.348188906040148 11.384623335668033 0 0 0
5771 1 14.490155391723942 12.126875765385828 11.463112591202908 0 0 0
5716 3 17.078507864495826 10.257344308340292 11.496813125145724 0 0 0
5773 1 19.69034771237789 11.257134987598715 11.47139431160475 0 0 0
5764 3 1.366484731911093 13.13763164769404 11.234491900562476 0 0 0
5824 1 1.4723968676009838 15.87525864043332 11.265531618907382 0 0 0
5821 2 4.071237026980627 14.007075652096182 11.298294945544543 0 0 0
5825 2 6.695703873075236 15.007684673623256 11.285890011570347 0 0 0
5770 3 9.30761372901842 13.177442310672916 11.390878824201666 0 0 0
5830 2 9.325864957913625 15.920988556592139 11.382746613437229 0 0 0
5827 1 11.88092278346914 14.148372031996535 11.403756399142742 0 0 0
5831 1 14.451316247415624 14.948381827895417 11.371283767516099 0 0 0
5776 2 17.086728816013473 13.079002957587305 11.37373568706912 0 0 0
5836 2 17.101098484897864 15.899282720231184 11.415279858031136 0 0 0
5833 3 19.727295551047828 13.995650749368252 11.43817252597246 0 0 0
8286 3 2.6497865770478106 0.9171423858439779 13.675679532006239 0 0 0
8284 3 1.4069095263006015 1.846161641192511 15.876555926382057 0 0 0
8343 3 0.07256779464099278 2.713637582697108 13.620919395311866 0 0 0
8282 1 5.233659765967195 1.796013444837437 13.696546323770113 0 0 0
8341 3 4.0420230369531 2.7673226673873446 15.929601642198657 0 0 0
8349 2 7.837591460359901 2.8331507592713017 13.665789907050911 0 0 0
8289 3 7.931773609065287 0.1142766039051678 13.70686990863551 0 0 0
8292 3 10.521667836253005 0.9553460289802841 13.653503227424418 0 0 0
8288 1 13.212266701783392 1.8995979351373486 13.53378618357296 0 0 0
8355 1 15.830185006218976 2.7041796834066307 13.58018187230054 0 0 0
8291 2 14.29707844028245 0.8605703662160131 15.937519711713275 0 0 0
8295 3 15.765264195168587 0.1223751599269806 13.639059019342598 0 0 0
8298 3 18.349575823636343 1.020455607346813 13.645124420870964 0 0 0
8296 3 17.052433718330384 1.8698987443800428 15.874229313403175 0 0 0
8353 2 19.670510064688802 2.837707662365747 15.927931141106038 0 0 0
8346 2 2.6606363724622777 3.662794106650651 13.7313109594029 0 0 0
8406 1 2.641591438367589 6.428011953533244 13.756007856634833 0 0 0
8342 1 5.316279612284531 4.590944128334703 13.705407509802692 0 0 0
8409 1 7.988662282347198 5.650139545018117 13.700253712645296 0 0 0
8352 2 10.532118147216476 3.703512675059892 13.66644075205833 0 0 0
8348 1 13.161642697751759 4.801082311099604 13.671592338952152 0 0 0
8415 2 15.835519762425024 5.569903411009759 13.616832233292575 0 0 0
8351 2 14.506704288793037 3.738497548890279 15.858595640912533 0 0 0
8358 2 18.331216530974075 3.858187009969806 13.600968334912103 0 0 0
8466 2 2.7714045518371777 9.279685612669201 13.57823496903813 0 0 0
8402 1 5.316662721422812 7.3665967940575126 13.728082872382585 0 0 0
8469 1 7.9071231265028645 8.40125860933401 13.725007248424209 0 0 0
8412 1 10.5675866891245 6.606594145121607 13.720624371861415 0 0 0
8472 1 10.559664964748059 9.372401077548911 13.700813756536165 0 0 0
8408 1 13.2833657482298 7.533469801250907 13.653255999589522 0 0 0
8475 3 15.857337303742217 8.477473308061397 13.6608394053873 0 0 0
8418 1 18.41563008110465 6.709574385322033 13.76153002049987 0 0 0
8478 1 18.39467030165868 9.413526403538294 13.733966486986048 0 0 0
8523 1 0.1561242433381969 11.189378373228575 13.645515772168247 0 0 0
8526 1 2.828066508501319 12.141692691794468 13.55128119889953 0 0 0
8464 1 1.4238290106300338 10.202214242549248 15.937211386455578 0 0 0
8462 2 5.399428259643501 10.23970844318148 13.589612138936664 0 0 0
8521 3 4.106987216855765 11.188621976001087 15.932146850779658 0 0 0
8529 2 8.022542814417154 11.215524012576646 13.632609973123007 0 0 0
8525 3 6.665963732514869 12.104677669334668 15.903709716868592 0 0 0
8532 2 10.641422484302105 12.222384927227075 13.71200248893095 0 0 0
8468 2 13.226781782340971 10.335923042196804 13.696283382458459 0 0 0
8535 3 15.822715794744378 11.2494468984044 13.766775271293259 0 0 0
8531 3 14.520900701493124 12.125809228091438 15.906644843524646 0 0 0
8538 2 18.417521090977317 12.202807366831262 13.710982302386364 0 0 0
8586 1 2.7466871421889256 14.899752582596303 13.548560086095646 0 0 0
8524 2 1.4359420429271543 13.001860019029095 15.899661731289246 0 0 0
8584 2 1.4272279502751684 15.813316713216128 15.929469218210015 0 0 0
8583 2 0.054219023215233114 13.9692977780562 13.602017108599027 0 0 0
8522 1 5.434736849290198 13.065942081944856 13.589695275647745 0 0 0
8582 1 5.4581861058294425 15.810919147987946 13.603162252768527 0 0 0
8581 2 4.12743429205321 13.96976607384753 15.882625633153367 0 0 0
8589 3 8.087658648717126 14.00653747181419 13.607941020496899 0 0 0
8585 1 6.778378784046971 14.952265299717649 15.94378730659436 0 0 0
8530 3 9.242084039278566 13.127646572318806 15.877614020432562 0 0 0
8590 3 9.330764426536696 15.893650159080451 15.831660397907061 0 0 0
8592 3 10.615081288699235 14.979610077758045 13.664015137014326 0 0 0
8587 1 11.884019632516482 14.053190077432516 15.866371627415342 0 0 0
8528 3 13.229149252020106 13.115925772971298 13.705985606975549 0 0 0
8588 2 13.242050597251565 15.92841848810988 13.65138687410979 0 0 0
8595 2 15.819202712109766 14.075323150056933 13.699807213920332 0 0 0
8591 1 14.467780864823585 14.941861088759302 15.954780404417706 0 0 0
8598 1 18.467999717559916 15.002473926001478 13.689623072579181 0 0 0
8596 3 17.12435361879521 15.922220328314049 15.931370131009233 0 0 0
11046 1 2.7587384426159356 0.9991725662672469 18.13547307138586 0 0 0
11103 3 0.10427086254133472 2.8311799257327546 18.257979781127414 0 0 0
11042 2 5.36531474135176 1.9066964548937093 18.264356568266884 0 0 0
8285 3 6.663715525336485 0.9169056819274285 16.011132970293932 0 0 0
8290 2 9.2270280884956 1.8696973001963384 16.00218494128727 0 0 0
11109 3 7.933328315256162 2.8416640602096837 18.268487598158043 0 0 0
11049 3 7.9472964256465 0.11705735278176335 18.291741736177144 0 0 0
8347 1 11.860017671064547 2.7964332290453497 16.00018335670379 0 0 0
11052 3 10.50200117953846 0.9344533544403716 18.29461187557357 0 0 0
11048 1 13.128353106699588 1.8943182280534605 18.30115274041622 0 0 0
11115 2 15.716730658670555 2.774010075225911 18.190892923353687 0 0 0
11058 1 18.28443126774917 0.9910716389894076 18.205052718267098 0 0 0
8344 1 1.4221093698900142 4.58778583370536 16.039276429692865 0 0 0
11106 1 2.6925857268358144 3.730096399435761 18.21188907789169 0 0 0
11163 3 0.09109145861502106 5.5516699335193795 18.290004896901177 0 0 0
11166 3 2.752471176144033 6.482097604679077 18.262818377440485 0 0 0
8345 1 6.611958675832967 3.676898906209041 16.101389453620442 0 0 0
8401 3 4.000315669751864 5.529295049104015 16.028974370470234 0 0 0
11102 3 5.341249677095149 4.712059518712996 18.213108907172273 0 0 0
8405 1 6.612775559843175 6.48610454055355 16.057955893828556 0 0 0
8350 2 9.199902035438113 4.663520283215 16.014499852423334 0 0 0
11169 3 7.990691883710016 5.609986343869634 18.2667960683958 0 0 0
8407 1 11.838209014237254 5.657805857835107 16.04135430148694 0 0 0
11112 2 10.581381699891432 3.7465686275302703 18.238158429622295 0 0 0
11108 3 13.25857403918986 4.762560477805922 18.178348027460487 0 0 0
11175 3 15.808098461761478 5.59403191034246 18.246999637076065 0 0 0
8356 1 17.077147853294978 4.739244765154239 16.00455272673271 0 0 0
11118 2 18.33548778786079 3.8366342550704116 18.233973085167097 0 0 0
8404 1 1.4113974073776203 7.389017923276087 15.978623818201566 0 0 0
11223 1 0.10845818746833087 8.363023161688561 18.338469937764074 0 0 0
11226 1 2.7306259954840333 9.31250766405871 18.18010730626794 0 0 0
8461 2 4.056213089828359 8.379981619746964 15.974062951455586 0 0 0
11162 1 5.382900629011726 7.4144874414326285 18.20298817749615 0 0 0
8465 2 6.693144714961376 9.379389617392434 16.00032574523987 0 0 0
8410 2 9.235259193661468 7.5245423485082865 16.05241188801741 0 0 0
11229 3 8.024117203523215 8.491766704733937 18.242279748476037 0 0 0
8467 2 11.919504239266008 8.47365710037772 16.018948184086547 0 0 0
11172 3 10.571783274670164 6.5940649189455955 18.26233220292959 0 0 0
11232 3 10.525385508246773 9.360781570246413 18.25538791650461 0 0 0
8411 2 14.505855797403902 6.601742316471761 15.966439391760696 0 0 0
8471 2 14.565032446039481 9.421918069039014 15.983475954589874 0 0 0
11168 3 13.22427909813767 7.514719523381586 18.234515253153386 0 0 0
11235 1 15.884402781306852 8.439828251953214 18.164287850809526 0 0 0
8473 3 19.662858460949586 8.489317219052035 16.009866045570032 0 0 0
8416 1 17.114079899496062 7.579405090318073 16.0295439942729 0 0 0
11178 3 18.461781530913203 6.637146027720865 18.26695283067032 0 0 0
11238 3 18.43529566842238 9.422998123113796 18.173839630634784 0 0 0
11286 1 2.7331140143987125 12.10491511239117 18.206195288473086 0 0 0
11222 3 5.327991776817732 10.26458853413823 18.160688889888903 0 0 0
8470 2 9.327226598152334 10.367282277343426 16.007408901582036 0 0 0
11289 2 7.932635494301922 11.312057254469947 18.28273747952378 0 0 0
8527 3 11.972977120874821 11.270354515549343 15.985552667606152 0 0 0
11292 1 10.583440725996745 12.13007880089792 18.160340334065218 0 0 0
11228 2 13.188865326300746 10.327762891917263 18.21852738129693 0 0 0
11295 3 15.881164660412004 11.177786275877278 18.13886146866262 0 0 0
8476 3 17.119811909604977 10.395273463678693 15.972703827836751 0 0 0
11298 3 18.40571086677163 12.124817937859694 18.248354414710406 0 0 0
11346 2 2.7588780705958404 14.92561067519558 18.227679262590655 0 0 0
11282 2 5.402962877300709 13.044177146071723 18.246702282751432 0 0 0
11342 1 5.429985152468886 15.878396969218592 18.27156112562413 0 0 0
11349 1 8.001232778852637 14.08946341196141 18.084084921864864 0 0 0
11352 1 10.560118621449325 14.987360686912872 18.086571190919802 0 0 0
11348 1 13.11937707039585 15.963589598923281 18.16487912204054 0 0 0
11288 1 13.190483164135385 13.096933286344344 18.17643839026933 0 0 0
11355 1 15.78278707316359 13.988848109331125 18.207629282104445 0 0 0
8536 2 17.124073244731317 13.097818266387293 16.013502771259667 0 0 0
11358 1 18.4443515895113 14.895625648140333 18.151586399159445 0 0 0
11044 1 1.4685658842976617 1.9665884768858415 20.448338234900483 0 0 0
11101 1 3.9515049259182318 2.8501127236612454 20.43922004223879 0 0 0
11045 3 6.6498789611715585 0.9383515300182276 20.483359271121095 0 0 0
11050 1 9.311794791836185 1.8548009450786997 20.554048275986393 0 0 0
11107 1 11.88918839004094 2.8037916791809616 20.4692970793329 0 0 0
11051 3 14.507678271226213 0.9578279205979284 20.510931326555507 0 0 0
11056 3 17.000419672859575 1.9116679917337973 20.45962386639785 0 0 0
11113 2 19.67063325446992 2.862077773502725 20.571317554562558 0 0 0
11104 3 1.343122253768748 4.716709108363699 20.54741468000498 0 0 0
11105 2 6.573222683215219 3.75376434674692 20.48122039299993 0 0 0
11161 3 4.034692435593585 5.608704883412386 20.47132178342753 0 0 0
11110 2 9.306365166636759 4.6880023433447375 20.471870474061372 0 0 0
11167 1 11.989617980467541 5.594413713465987 20.467735409690736 0 0 0
11111 2 14.472422461317615 3.7731790126430416 20.512988047695774 0 0 0
11173 3 19.665372107172498 5.667458725206595 20.472610920088112 0 0 0
11116 1 17.075788184272195 4.735925134233419 20.48180052063171 0 0 0
11164 1 1.412375749717416 7.344880433881071 20.522319495309734 0 0 0
11221 1 3.958401636860456 8.391429603558406 20.4558858172993 0 0 0
11225 2 6.598293119517955 9.398771116077368 20.47469802878121 0 0 0
11165 1 6.685587766771729 6.606167637827091 20.38292417550165 0 0 0
11170 1 9.19090768592729 7.533071155666873 20.422037997307022 0 0 0
11227 1 11.895074644232503 8.432456459959495 20.45095849198466 0 0 0
11171 1 14.525075833880246 6.544842560541816 20.497287652368946 0 0 0
11231 2 14.573875623875864 9.354434909856668 20.450340833820373 0 0 0
11176 3 17.164659061353262 7.551049290433831 20.383419055273624 0 0 0
11224 2 1.3244386302646196 10.222265289393121 20.50314378412672 0 0 0
11281 2 4.036518893583199 11.22039726349417 20.51409326054782 0 0 0
11285 1 6.618679436815056 12.158172724565437 20.637164054896488 0 0 0
11230 3 9.221242898577497 10.265148062914879 20.520487486668934 0 0 0
11287 1 11.868931181066209 11.250536373823069 20.525492576919373 0 0 0
11291 1 14.491743756528495 12.140625554012257 20.512874726382254 0 0 0
11236 1 17.19810219680466 10.26869889724367 20.477589782550442 0 0 0
11293 3 19.734389146046926 11.222852444822502 20.519198869302556 0 0 0
11284 2 1.3800770207755635 13.05523851044506 20.51391487110879 0 0 0
11344 1 1.4123542250126908 15.846516136104967 20.542401244123063 0 0 0
11341 2 4.077088743220839 14.026809524068112 20.57487619483873 0 0 0
11345 3 6.64752778366158 14.934025518200746 20.550580958818323 0 0 0
11290 2 9.244855461512588 13.072151843631884 20.510301006701177 0 0 0
11350 1 9.071855351058538 15.841072544599736 20.47333973432701 0 0 0
11347 1 11.898117690709023 14.044507935219462 20.48853156039082 0 0 0
11351 1 14.406619065974253 14.961176076709487 20.577878860865134 0 0 0
11353 2 19.654309442188943 13.98019924272373 20.538002330358154 0 0 0
11296 1 17.069723057110213 12.954227235941683 20.506667768431363 0 0 0
11356 2 17.075454124128527 15.837949900750417 20.522889764763683 0 0 0
13804 2 1.3559213645212547 1.8867356770946029 25.097559617066935 0 0 0
13806 1 2.696132419090442 0.9437234602377977 22.752332208702843 0 0 0
13802 2 5.334090083611609 1.8733693476951416 22.739531319304785 0 0 0
13861 2 3.9955812588124897 2.823439283878366 25.065362254113232 0 0 0
13805 1 6.62443223244851 0.978235626764108 25.12514974689206 0 0 0
13810 1 9.27724881928645 1.8594801264624785 25.044687729345007 0 0 0
13869 1 8.063180147730705 2.7794882263041742 22.679931347672884 0 0 0
13809 3 7.892004168157062 0.11025323602312072 22.76593900371441 0 0 0
13812 3 10.625110272990304 0.9717018377788522 22.806097981464276 0 0 0
13867 2 11.847904901633122 2.8373652044906557 25.07675957521676 0 0 0
13808 2 13.172215800235241 1.9343431673241689 22.745955833615827 0 0 0
13811 1 14.475739812307928 1.1232315984448513 24.962129625351306 0 0 0
13875 2 15.811508022318236 2.842346484605628 22.771375431241292 0 0 0
13873 2 19.70509987228451 2.8589323435372296 24.980594871179303 0 0 0
13816 3 17.06774298347006 1.9125274085032526 25.035150293286364 0 0 0
13818 2 18.402693953352802 1.0518076025923928 22.757894562696627 0 0 0
13864 1 1.3302173273341924 4.693377625793072 25.061352178146638 0 0 0