LAMMPS data file via write_data, version 2 Aug 2023, timestep = 5917, units = metal

38640 atoms
3 atom types

0.05263816671071184 78.82093155328955 xlo xhi
0.10785460107644035 128.1678282089238 ylo yhi
0.05313874539998162 63.699608644600076 zlo zhi

Masses

1 92.90600000000001
2 180.948
3 50.942

Atoms # atomic

4 3 1.2897930342815886 1.8969838293055135 2.3472298254548707 0 0 0
6 3 2.684958968938745 0.9988344025205326 0.09840975579536819 0 0 0
1 1 4.017969742964696 0.17356624684867938 2.4236265548596143 0 0 0
61 1 3.968818787068668 2.8168359147221818 2.356435169193385 0 0 0
2 2 5.250688191569459 1.9437828510072772 0.09319072555150386 0 0 0
5 3 6.691106195215161 0.990037493904603 2.405151425037733 0 0 0
10 2 9.254576547390373 1.8875394966560706 2.378679316231519 0 0 0
12 2 10.588770897739348 0.939993983162928 0.07798373251859149 0 0 0
67 1 11.926372201773304 2.7274771051953577 2.3765256533086747 0 0 0
11 1 14.50524076262658 0.9207489504482854 2.425740445848734 0 0 0
8 1 13.297082662176514 1.819555750206316 0.0846192463068494 0 0 0
16 1 17.135670249322143 1.8716103614451138 2.329176919599259 0 0 0
64 1 1.4375489202429859 4.6032307881106 2.276878788688236 0 0 0
65 3 6.6025093070548015 3.7059151446205796 2.335568949704558 0 0 0
121 1 3.9829647652190547 5.567823222046932 2.3103933855533643 0 0 0
62 1 5.29747291959171 4.683811760270824 0.05847793152033246 0 0 0
70 1 9.217657442952095 4.681598193124628 2.4463158213644824 0 0 0
72 2 10.485028585657194 3.771283102042458 0.13625216821789635 0 0 0
127 2 11.86813772616652 5.575122545323413 2.379934695260705 0 0 0
71 1 14.485500316166691 3.655896886124042 2.4095061681258345 0 0 0
131 1 14.517015827327528 6.438591557844289 2.4486278449573806 0 0 0
68 3 13.244014868811536 4.599457590960462 0.07123278851520737 0 0 0
76 2 17.077135997102292 4.693996062379766 2.328172514177223 0 0 0
138 3 18.52373307628183 6.454568222062101 0.08426529814254684 0 0 0
78 3 18.54431238717075 3.7770305370110577 0.05852724791640758 0 0 0
133 3 19.739070220793437 5.588127398560433 2.2704999795264786 0 0 0
124 2 1.3518348582712965 7.439962295859698 2.2659444087823295 0 0 0
186 3 2.6885342650689323 9.337559766504741 0.10018589334118871 0 0 0
122 1 5.2817938767652866 7.48776426584651 0.06022555443122012 0 0 0
125 1 6.55525034119489 6.537262282337618 2.3433009739911723 0 0 0
181 3 3.9109235597550023 8.454813200399125 2.3361847404996765 0 0 0
185 1 6.55801418312662 9.355593338785232 2.331815944641344 0 0 0
130 2 9.248706295552626 7.442746347435666 2.356915664028961 0 0 0
187 2 11.878623402374627 8.444797202694687 2.355375664791052 0 0 0
132 3 10.640738800776068 6.569656141441797 0.13978446285118432 0 0 0
128 2 13.303200585554016 7.3637172092537595 0.12990464053539952 0 0 0
191 2 14.585526695591353 9.287150631514695 2.3238705789991982 0 0 0
136 3 17.14290127008786 7.460978723015102 2.278425094534169 0 0 0
184 2 1.4022239398487528 10.29209255378758 2.305445658368503 0 0 0
246 1 2.6504064922793464 12.134224355198304 0.13744552548796501 0 0 0
182 1 5.293836721595894 10.203735249302461 0.15234218522000637 0 0 0
241 3 4.048679243020719 11.202703592046616 2.411239244171453 0 0 0
245 1 6.562878009700096 12.085906635864776 2.38364067947246 0 0 0
190 2 9.241162429978445 10.2789720528812 2.3626496137996145 0 0 0
249 3 7.900172324570119 11.276507644535481 0.10395196295856358 0 0 0
247 1 11.850886473638662 11.285515452756506 2.350107844394534 0 0 0
252 1 10.565386354461458 12.20559414399277 0.07581014434338289 0 0 0
251 1 14.496491946671682 12.119946813276865 2.3886901056918988 0 0 0
196 2 17.251631656923113 10.283937013183827 2.3379449262170153 0 0 0
258 2 18.485539273755432 12.176903250109975 0.0786436653101669 0 0 0
244 1 1.4900635468276673 13.043498035426394 2.3641619507090597 0 0 0
303 2 0.10018111468973769 13.995940948526645 0.0870066623280495 0 0 0
304 2 1.4229726239893201 15.88229962000867 2.390301100871368 0 0 0
306 2 2.7472655428329653 14.959021706907413 0.08465919956209877 0 0 0
242 2 5.284626773401789 13.069035848195504 0.11031616481609437 0 0 0
301 3 4.018522438648197 14.048673259552823 2.398681624873171 0 0 0
302 2 5.401558147920016 15.874368630762664 0.09850777726453712 0 0 0
305 2 6.651625586889207 14.865003732080618 2.540251705684428 0 0 0
250 2 9.20123233149912 13.121179257289105 2.3918636926976915 0 0 0
310 3 9.334450374354567 15.884046069812017 2.333406156083072 0 0 0
309 2 7.949427283717794 14.10448021387678 0.08896276440607158 0 0 0
307 2 11.853720282629126 14.080113836344498 2.3854344829474416 0 0 0
311 1 14.491702081373516 14.853023441033933 2.4124846971074154 0 0 0
313 3 19.70403288519328 14.055851675146268 2.2859052220810763 0 0 0
256 3 17.145531591452194 13.099029470372814 2.341952191867654 0 0 0
316 2 17.01435762859005 15.879374737481832 2.2577804442301703 0 0 0
318 3 18.523704549936532 14.950294704262294 0.09197583416549879 0 0 0
2766 3 2.5915854532773164 1.0305779277398024 4.591407335497134 0 0 0
2762 2 5.266911595667515 1.8816640858973288 4.616431471555387 0 0 0
2829 2 7.895426686278862 2.8094652073721793 4.637728349394406 0 0 0
2772 3 10.50310580348075 0.907084692390002 4.695213675854679 0 0 0
2768 3 13.11992621545511 1.8183878751703064 4.748684849074111 0 0 0
2835 2 15.837002846375066 2.8046507803822114 4.656973920948663 0 0 0
2778 2 18.336368056638573 0.9721705193456842 4.66508434979332 0 0 0
2826 3 2.6696966796576613 3.6734274218554726 4.58528902534795 0 0 0
2886 2 2.6931809719743045 6.499899391142335 4.557341650659455 0 0 0
2822 3 5.276595820122176 4.611383470811878 4.6359526969549965 0 0 0
2889 1 7.904069092247853 5.607037131424964 4.652422993950072 0 0 0
2832 2 10.580821665196902 3.7000150732459542 4.64960551272882 0 0 0
2828 2 13.215849992849229 4.651973367870166 4.6668891364634835 0 0 0
2895 3 15.814632681761719 5.601088010295558 4.711255536344708 0 0 0
2838 1 18.467412829373146 3.7691945242817444 4.657481820180058 0 0 0
2898 2 18.422145189253538 6.50175252945109 4.581348540494804 0 0 0
2946 2 2.7296748293349777 9.385096861724904 4.612117008765542 0 0 0
2882 2 5.261918254076719 7.494709458361065 4.582069247888803 0 0 0
2949 2 7.8948890110668675 8.451252783255342 4.602176640719522 0 0 0
2892 3 10.671617503856842 6.572465806925202 4.6534384111658476 0 0 0
2952 2 10.558202973607433 9.363027698953005 4.6559505877177365 0 0 0
2888 3 13.194411691460637 7.493277212935757 4.604248121802791 0 0 0
2955 1 15.931045984197175 8.356779877718607 4.6212422137327795 0 0 0
2958 3 18.648913231066423 9.316567548963452 4.570341469315256 0 0 0
3003 2 0.13845717689514386 11.225203201356855 4.597796446927603 0 0 0
3006 3 2.783090013328334 12.172375161482032 4.557289430026469 0 0 0
2942 3 5.308543677594332 10.351037812884641 4.621599918090932 0 0 0
3009 3 7.941076666562379 11.295193605175557 4.614355800623282 0 0 0
3012 3 10.562138806838403 12.185269023899862 4.649815346391779 0 0 0
2948 2 13.192654949564925 10.353155275509945 4.6301379982369815 0 0 0
3015 1 15.899846543608248 11.090961653302891 4.557283865274757 0 0 0
3018 1 18.48296388911075 12.20080644289842 4.526324060808519 0 0 0
3063 2 0.16351050555367663 14.064362644208057 4.558957098805984 0 0 0
3066 3 2.773410809007769 14.953273303059055 4.653972051481213 0 0 0
3002 3 5.2510648284855765 13.013655962680069 4.59994165567136 0 0 0
3062 1 5.257035133346791 15.895762509348152 4.629097105150011 0 0 0
3069 1 8.044227644137791 14.041127086782968 4.684575518308203 0 0 0
3072 3 10.505477454479282 14.98003731203273 4.608529168397844 0 0 0
3008 1 13.112600006107554 13.135201407796824 4.669854745155289 0 0 0
3068 3 13.129592149164264 15.85556430611364 4.583725508971371 0 0 0
3075 3 15.844466268792841 13.937492154209734 4.6677169917304635 0 0 0
3078 3 18.448899469900596 14.957110450070338 4.4778249470040015 0 0 0
2764 2 1.341884039901296 1.8891577905767905 6.83094880888136 0 0 0
5526 2 2.663372338883241 0.9637428583521545 9.179927443660908 0 0 0
2821 3 4.031186084969686 2.805750045776404 6.887282128916793 0 0 0
5522 3 5.252041086891615 1.926003951577628 9.085506362748422 0 0 0
2765 2 6.639950144909183 0.9608245511501838 6.901865402668389 0 0 0
2770 2 9.263288289922219 1.9077076664096184 6.900209594715568 0 0 0
5529 1 8.013394034281744 0.1363799221778159 9.142403828684456 0 0 0
5589 3 7.823625442687607 2.8374337224342727 9.161090092692485 0 0 0
2827 3 11.892970840727143 2.795556963493181 6.870686714179816 0 0 0
5532 3 10.59747395166893 0.9636184524069142 9.147876925902562 0 0 0
2771 1 14.477426683587218 0.9474030542064467 6.861873997239224 0 0 0
5528 3 13.211800686146784 1.8568295944662312 9.05273347407323 0 0 0
5535 3 15.803856282895739 0.14892635666481666 9.013730092207977 0 0 0
5595 3 15.774220947587658 2.8759741614736773 9.157168404013559 0 0 0
2833 1 19.68606873306661 2.8640673417430658 6.8725352922919605 0 0 0
2776 3 17.008429337234315 1.9184750334232024 6.976329557892363 0 0 0
5538 1 18.36212466870119 1.0277026017780264 9.118349181799363 0 0 0
2824 1 1.3361990609859196 4.640325558087498 6.827196443200231 0 0 0
5586 2 2.6707645125808743 3.7014658044055686 9.157623296310621 0 0 0
2825 3 6.577509395569173 3.687811121120856 6.882906636442168 0 0 0
2881 1 3.9846585658363596 5.540089431608426 6.804145042104372 0 0 0
5582 2 5.291843569676427 4.70900101575223 9.130887433253482 0 0 0
2885 1 6.580572570522284 6.482911712255165 6.84993374163623 0 0 0
2830 1 9.24246435675051 4.635671464015689 6.903664186237163 0 0 0
5649 3 7.914434452523047 5.595513849952204 9.159326844309003 0 0 0
2887 3 11.87002950373624 5.535047673765249 6.8132825457652535 0 0 0
5592 1 10.484290270769593 3.679294011760199 9.038452793461463 0 0 0
5588 2 13.15403816603635 4.659944292675837 9.162946500314403 0 0 0
5652 2 10.628514809762862 6.478534045201964 9.193418494696733 0 0 0
2831 2 14.501187698209703 3.7015510900802746 6.930456858257471 0 0 0
5655 3 15.790220473713408 5.541670094316692 9.13876479150317 0 0 0
2891 2 14.488331737336889 6.504636352043275 6.92823203556957 0 0 0
2893 3 19.70541222066294 5.509947977660105 6.837332834541431 0 0 0
2836 3 17.093393329813015 4.685481470183063 6.89900664667185 0 0 0
5598 3 18.31568393670978 3.8536940311311434 9.106165566710665 0 0 0
5646 2 2.7016407287868853 6.51427955768541 9.165666697114121 0 0 0
2884 2 1.3369695023518902 7.452374499930567 6.821877352018908 0 0 0
5706 1 2.734831582597192 9.363264818498156 9.063041242572687 0 0 0
2941 3 4.0065435021308815 8.378473907768221 6.825765946667291 0 0 0
2945 1 6.577985661897878 9.45160705579565 6.82460625746173 0 0 0
5642 1 5.352347642310934 7.499690636154283 9.182252883334083 0 0 0
2890 2 9.276444049264207 7.422827553655403 6.885476832234 0 0 0
5709 1 7.899066360503287 8.353972162760478 9.104947790622235 0 0 0
2947 2 11.928362741592132 8.336888938181964 6.8930064946415985 0 0 0
5712 1 10.556581274584456 9.36597425460474 9.103149691769657 0 0 0
2951 2 14.515497143677806 9.362058170913654 6.896155044144603 0 0 0
5648 1 13.27081524469467 7.485020236334589 9.15910609026479 0 0 0
5715 3 15.857610251723766 8.370361670932096 9.192394732971696 0 0 0
2953 1 19.69652635346625 8.336904209171331 6.9527758675249105 0 0 0
2896 1 17.12933141387072 7.478035973395084 6.8501633080651105 0 0 0
5658 1 18.37705480381563 6.542013277148066 9.131826781344627 0 0 0
5718 1 18.379401135150186 9.330574405097993 9.196577626745897 0 0 0
2944 1 1.39491557501008 10.291622691897304 6.871932445231828 0 0 0
5766 1 2.837241564821446 12.10057528139911 9.065209184972206 0 0 0
5763 1 0.06881048510082803 11.222207838701024 9.133956113524999 0 0 0
3001 3 4.061258067370288 11.193471946099557 6.750148744227286 0 0 0
5702 1 5.385950668506622 10.357756057239435 8.97840283423438 0 0 0
3005 3 6.641216259694672 12.25844610604945 6.770792217451987 0 0 0
2950 1 9.150986109847969 10.31170084719639 6.7571299442254675 0 0 0
5769 2 8.12197841295433 11.249088959757778 9.023619042469628 0 0 0
3007 3 11.75870754743893 11.183873314550851 6.905878751535598 0 0 0
5772 1 10.585887928620123 12.385230470570617 9.071134499906373 0 0 0
3011 1 14.447765385729207 12.199066305690819 6.885173949648446 0 0 0
5708 1 13.202409169046518 10.310722613057528 9.168796549829846 0 0 0
5775 1 15.781032872360285 11.21315950119925 9.206201298872678 0 0 0
2956 2 17.172965671224052 10.347324663354994 6.869236415179575 0 0 0
5778 3 18.477856499315543 12.174283866586672 9.143195367011243 0 0 0
3004 2 1.5289374271840355 13.161927024473508 6.948787034854378 0 0 0
3064 3 1.4689235541819006 15.980422742774497 6.7893512779094305 0 0 0
5826 1 2.7745893406460427 15.012839818005796 9.05109318889747 0 0 0
3061 1 4.104394405511787 14.105560731197595 6.722754891983916 0 0 0
5762 3 5.38219740192469 13.147516093307699 8.94567667450243 0 0 0
5822 1 5.325175574750308 15.88984654827924 9.006417353860357 0 0 0
3065 3 6.68931132181945 15.030548483056949 6.717379042047942 0 0 0
3010 3 9.22954866148117 13.184596096150772 6.770747146343601 0 0 0
3070 3 9.2786128838361 15.910151158305606 6.832338643791377 0 0 0
5829 2 7.983585585301712 14.057074292902923 9.008624039753105 0 0 0
3067 2 11.819002881393654 14.060506246787165 6.833040666666027 0 0 0
5832 3 10.502467997813152 15.055346901747225 9.047577538413796 0 0 0
5768 3 13.160536406842727 13.164406659182509 9.204164067311183 0 0 0
5828 1 13.157167128005723 15.982394535755844 9.086710887881516 0 0 0
3071 1 14.416629511402304 15.028106386000307 6.857470827622019 0 0 0
5835 2 15.81150039671973 14.056277440651181 9.001589111899058 0 0 0
3073 2 19.73744718812301 14.057552508830934 6.800080779277126 0 0 0
3016 1 17.247677535302536 13.105916504148627 6.875765939782107 0 0 0
3076 2 17.106825637316575 15.900413764040753 6.832405267585763 0 0 0
5838 2 18.46351497366993 14.998037361220863 9.151961573918916 0 0 0
5524 3 1.3693616136535083 1.8552834803913782 11.48153825379659 0 0 0
5525 2 6.602081875191814 0.9326820039521773 11.402060908309299 0 0 0
5581 2 4.00101912919246 2.7551405916023555 11.413953737992815 0 0 0
5530 3 9.270422089698108 1.8192856652820046 11.440536299824409 0 0 0
5587 2 11.826804407813178 2.8344029043011862 11.29034639748508 0 0 0
5531 1 14.54219301163884 1.0419600238849012 11.227188034693565 0 0 0
5536 3 17.114703970465925 1.952244758074494 11.329744915937107 0 0 0
5593 2 19.72570828101918 2.8491908273020297 11.35984641879066 0 0 0
5584 2 1.3083531052663542 4.631638389569864 11.414147353860757 0 0 0
5585 1 6.60586352599464 3.7056963231418205 11.320045055142575 0 0 0
5641 3 3.9904186437233355 5.596622575265288 11.49090027582144 0 0 0
5590 2 9.209344466579743 4.649602428797949 11.337042302679171 0 0 0
5645 3 6.6611438625001576 6.49636018503275 11.426731355843513 0 0 0
5647 1 11.872070030547492 5.621438665592029 11.496718786129295 0 0 0
5591 3 14.522682519320627 3.7361565187207884 11.3841217716748 0 0 0
5596 1 17.091965154455668 4.703716685014099 11.246280956588258 0 0 0
5644 1 1.3767032977323714 7.488774414079158 11.410256857406328 0 0 0
5701 1 4.129422820791718 8.439360482498152 11.311781943067336 0 0 0
5705 1 6.7350966667513985 9.382524655536477 11.268705279444823 0 0 0
5650 3 9.178297522191443 7.573791925807819 11.386195544556506 0 0 0
5707 1 11.928936170055525 8.434406546537684 11.41693256211232 0 0 0
5651 3 14.547245228422243 6.513813865327397 11.35156701671507 0 0 0
5711 1 14.589178193258851 9.327152017747066 11.444796065320787 0 0 0
5656 3 17.04215306640183 7.459789386366105 11.437341605807966 0 0 0
5713 1 19.635593637780012 8.537102727956743 11.467664670144478 0 0 0
5704 1 1.3755463697867651 10.317410815810108 11.343843705018644 0 0 0
5761 3 4.036640549855803 11.224080653029805 11.264741418961052 0 0 0
5765 2 6.671096562399822 12.203770830336728 11.312440842771988 0 0 0
5710 1 9.368409096721159 10.457080070082462 11.370932978548492 0 0 0
5767 1 11.913148525569602 11.34827749466245 11.384761063444135 0 0 0
5771 1 14.490025970637445 12.126979576206736 11.463274946915545 0 0 0
5716 3 17.078391469007208 10.257451589639997 11.496939879434708 0 0 0
5773 1 19.690215112767746 11.257257999422565 11.471580119703942 0 0 0
5764 3 1.366344916854682 13.137673185829238 11.23466089809543 0 0 0
5824 1 1.4722395327465791 15.875295588302997 11.265783817237324 0 0 0
5821 2 4.071091892428944 14.007127466542673 11.298484004681812 0 0 0
5825 2 6.695556652456819 15.007734446030486 11.286104953183292 0 0 0
5770 3 9.307479831297794 13.177515781075607 11.39106072581784 0 0 0
5830 2 9.325719133816683 15.921039865266426 11.38299160225283 0 0 0
5827 1 11.880772226043689 14.148441609903154 11.403971582860773 0 0 0
5831 1 14.451170181289665 14.948466164007177 11.371521877960017 0 0 0
5776 2 17.08659730859729 13.079105664883379 11.373938078320442 0 0 0
5836 2 17.10095123827671 15.899375468523608 11.41554383025195 0 0 0
5833 3 19.72715299757633 13.995764505501336 11.438406412219694 0 0 0
8286 3 2.6496880979224056 0.9172262933207954 13.675506188132683 0 0 0
8284 3 1.4068252663612861 1.8462420592345725 15.876407425789294 0 0 0
8343 3 0.07246093237379764 2.7137216307811016 13.620786833332168 0 0 0
8282 1 5.2335566177748705 1.7960935732025043 13.696391104116554 0 0 0
8341 3 4.041962818826657 2.7674064773357014 15.929464627286999 0 0 0
8349 2 7.83745052867194 2.8332852586725763 13.665681025388299 0 0 0
8289 3 7.931663076239193 0.11438715825214078 13.70669481712165 0 0 0
8292 3 10.52154047851651 0.9554544966480164 13.653352178077492 0 0 0
8288 1 13.212154372895375 1.8996795165625002 13.533664742762571 0 0 0
8355 1 15.830048106948167 2.7042553935894036 13.580113519469517 0 0 0
8291 2 14.296994734952982 0.8606577365904263 15.937372485273446 0 0 0
8295 3 15.765178729061848 0.12242837079482717 13.638890923021863 0 0 0
8298 3 18.349460311815925 1.020529855543849 13.645013136972306 0 0 0
8296 3 17.052320205117482 1.869979952568504 15.874128447374964 0 0 0
8353 2 19.670395010461526 2.837771927015091 15.92786751447199 0 0 0
8346 2 2.6605277490089443 3.662867471167006 13.731196402523342 0 0 0
8406 1 2.641477421579628 6.428076000673741 13.755965244132883 0 0 0
8342 1 5.316171151146103 4.591034706414061 13.70534177921256 0 0 0
8409 1 7.9885712164136855 5.6502520992678065 13.700219820023223 0 0 0
8352 2 10.532002231684157 3.7036169197656443 13.666349419598175 0 0 0
8348 1 13.16152417326216 4.801189142261416 13.671558173503373 0 0 0
8415 2 15.83539410630011 5.570006056937889 13.61683786622236 0 0 0
8351 2 14.5065951766197 3.7386042239701527 15.858549069850667 0 0 0
8358 2 18.331085541209628 3.8582694665617763 13.600921436074268 0 0 0
8466 2 2.7712716832698323 9.279770557269213 13.578322356782211 0 0 0
8402 1 5.316548438691221 7.366686140361661 13.728085166036788 0 0 0
8469 1 7.9070196390779275 8.401344698287733 13.725047646463793 0 0 0
8412 1 10.567464434509727 6.606711587573897 13.720621118145381 0 0 0
8472 1 10.559552581372962 9.372497433668716 13.700903957258022 0 0 0
8408 1 13.283249088628605 7.533579992638834 13.653286540772822 0 0 0
8475 3 15.857213764360868 8.477585066185304 13.6609155371663 0 0 0
8418 1 18.415510614356165 6.709665437703335 13.761567010905205 0 0 0
8478 1 18.394545475835304 9.413627168699108 13.734070014274913 0 0 0
8523 1 0.15598961507575881 11.1894379140906 13.645666010152018 0 0 0
8526 1 2.8279256202875924 12.141755536735559 13.55144397122265 0 0 0
8464 1 1.4237104270257748 10.202262769720118 15.937320914106953 0 0 0
8462 2 5.399291307265427 10.23979985033926 13.589736553830802 0 0 0
8521 3 4.106849633887239 11.18867829290611 15.932294093382701 0 0 0
8529 2 8.02241095928266 11.215608786227277 13.632760649822766 0 0 0
8525 3 6.665827752409446 12.104740567790559 15.903869867590814 0 0 0
8532 2 10.641293368169402 12.222472933532575 13.712166870028383 0 0 0
8468 2 13.226664573209684 10.336034113165699 13.696406997375693 0 0 0
8535 3 15.822590815244238 11.249552505018812 13.766932110754178 0 0 0
8531 3 14.520775272162792 12.125903772710556 15.906816038467362 0 0 0
8538 2 18.417392052165745 12.202914485830428 13.71117615423897 0 0 0
8586 1 2.746530931339351 14.899792252410712 13.548775053371264 0 0 0
8524 2 1.435800423042039 13.001904279912255 15.89985501806431 0 0 0
8584 2 1.427073278500685 15.813349446460098 15.92971744772867 0 0 0
8583 2 0.0540748313265021 13.969348366996087 13.602218310948214 0 0 0
8522 1 5.434592717487212 13.066008746161799 13.589872364510148 0 0 0
8582 1 5.458027218918661 15.810965575615805 13.603402083580752 0 0 0
8581 2 4.127286916830816 13.969817567284727 15.882828339717715 0 0 0
8589 3 8.087510837078117 14.006600155681436 13.608141958358628 0 0 0
8585 1 6.778229001116875 14.952329430621141 15.944017984584525 0 0 0
8530 3 9.241943654558598 13.127719662915764 15.877793454036249 0 0 0
8590 3 9.330611339430101 15.893709685128657 15.831911486586149 0 0 0
8592 3 10.614934003478476 14.979682268223137 13.664248212553224 0 0 0
8587 1 11.88388640105295 14.053274519536995 15.866582392918783 0 0 0
8528 3 13.229018047111932 13.116014851646714 13.706173380796878 0 0 0
8588 2 13.241901738198212 15.928495511840573 13.651655041777264 0 0 0
8595 2 15.819065515984672 14.075417232406839 13.700023105947876 0 0 0
8591 1 14.467648124971507 14.941944766026634 15.955022164821461 0 0 0
8598 1 18.467855364826 15.002579377224572 13.689879471830533 0 0 0
8596 3 17.12420836759844 15.922302497154822 15.931612944237562 0 0 0
11046 1 2.7586517838490257 0.9992387368570484 18.135308185894033 0 0 0
11103 3 0.10419545287488247 2.8312344923078756 18.257862798538543 0 0 0
11042 2 5.365229850544419 1.9067806107313745 18.26422853825827 0 0 0
8285 3 6.6636281814121645 0.9169895136898174 16.01099792185193 0 0 0
8290 2 9.226926998701705 1.8698023506967973 16.002053691950824 0 0 0
11109 3 7.933246589969849 2.841756090792192 18.26839806047741 0 0 0
11049 3 7.947214199346085 0.11714485526107866 18.291572237391115 0 0 0
8347 1 11.859917340624929 2.7965356254170826 16.000075142638753 0 0 0
11052 3 10.501918822297448 0.9345418522533315 18.294457214213082 0 0 0
11048 1 13.128257160983951 1.8944255105525367 18.301019440068384 0 0 0
11115 2 15.716635161121495 2.7741002177186895 18.190811557860627 0 0 0
11058 1 18.284340541582743 0.9911325467548519 18.204940349065385 0 0 0
8344 1 1.4220092655593852 4.587861065966213 16.039188358895725 0 0 0
11106 1 2.692504320172657 3.7301422630341605 18.21179114025638 0 0 0
11163 3 0.09098817056150016 5.5517299658580965 18.289964968634465 0 0 0
11166 3 2.752369855511969 6.482098902511387 18.26278003587377 0 0 0
8345 1 6.611874564613071 3.6769977967508485 16.10131972047474 0 0 0
8401 3 4.000215866770324 5.529371780264319 16.028915489359683 0 0 0
11102 3 5.341160782638192 4.712137402309169 18.213054904927347 0 0 0
8405 1 6.612680187900911 6.486187154101627 16.057936177485104 0 0 0
8350 2 9.199813687218116 4.663622538699338 16.014446142318114 0 0 0
11169 3 7.990597954127424 5.61007104234166 18.26677005242881 0 0 0
8407 1 11.838105075310581 5.657920303367915 16.041330826372356 0 0 0
11112 2 10.581291586155146 3.746662901941298 18.238091415875683 0 0 0
11108 3 13.258471816067589 4.762670086600865 18.178311807820627 0 0 0
11175 3 15.80799902560152 5.5941200845161525 18.246988575278397 0 0 0
8356 1 17.077035979060682 4.739345644796521 16.004529804856197 0 0 0
11118 2 18.33538080730877 3.836710736740823 18.2339263920803 0 0 0
8404 1 1.4112865022773875 7.3890776326233105 15.978625152373908 0 0 0
11223 1 0.1083491021052465 8.363070992518043 18.338533820488102 0 0 0
11226 1 2.7304991839295036 9.312508640017683 18.18022104015133 0 0 0
8461 2 4.056095049353681 8.380037775058694 15.974121173550579 0 0 0
11162 1 5.3827894336993936 7.414555610504089 18.203013358692193 0 0 0
8465 2 6.693026919684711 9.379452627497098 16.000412980889124 0 0 0
8410 2 9.235160363124784 7.524642804286989 16.052456536379644 0 0 0
11229 3 8.024009745597999 8.491835604483018 18.242345572334884 0 0 0
8467 2 11.919400559357554 8.473762619738782 16.019023839895773 0 0 0
11172 3 10.571690807138278 6.594158829657539 18.262338492863787 0 0 0
11232 3 10.525276187213949 9.360867908191265 18.25548499897993 0 0 0
8411 2 14.505744150781103 6.601852521198789 15.966463754053695 0 0 0
8471 2 14.564919416569309 9.422022693580459 15.983584632574827 0 0 0
11168 3 13.22418988617751 7.514825004987444 18.23457672411851 0 0 0
11235 1 15.884303266720668 8.439921423611308 18.164382604750262 0 0 0
8473 3 19.66273241690405 8.489409023944953 16.009958133686936 0 0 0
8416 1 17.113965816952305 7.579519903895731 16.02959976721477 0 0 0
11178 3 18.461678032690134 6.637234205934057 18.266984510410246 0 0 0
11238 3 18.43519311356551 9.423089597790463 18.173959578105197 0 0 0
11286 1 2.7329773047109263 12.104949054736288 18.206369266821152 0 0 0
11222 3 5.327861097602903 10.26463479914224 18.160800189957687 0 0 0
8470 2 9.327111080910027 10.367367295106588 16.007524585971012 0 0 0
11289 2 7.932510606227 11.312110303570867 18.28286420863645 0 0 0
8527 3 11.972858183715159 11.270451059491894 15.985701675044083 0 0 0
11292 1 10.583314497369704 12.130174734101507 18.160503437830993 0 0 0
11228 2 13.188751258430958 10.327859430590713 18.218656570258332 0 0 0
11295 3 15.881043023724827 11.1778803476834 18.139017254052415 0 0 0
8476 3 17.11969459659942 10.39536952549682 15.97284961962731 0 0 0
11298 3 18.405584305413164 12.124909618888951 18.24854474419268 0 0 0
11346 2 2.758732714605112 14.925640876492853 18.22790832853254 0 0 0
11282 2 5.402819595590958 13.044221872956625 18.246881834612363 0 0 0
11342 1 5.429830307263223 15.878434136628922 18.271811598655688 0 0 0
11349 1 8.001070092723689 14.089515643818759 18.084286653805606 0 0 0
11352 1 10.55996762374605 14.987422914025583 18.08681428980479 0 0 0
11348 1 13.11923683012778 15.963665374435957 18.165146163480603 0 0 0
11288 1 13.190351863860391 13.097029691231134 18.176635479197564 0 0 0
11355 1 15.782657632166776 13.988941951534883 18.20785390856726 0 0 0
8536 2 17.123938977780604 13.097908764261579 16.013703762083956 0 0 0
11358 1 18.444179133740832 14.89572689310774 18.15186561135901 0 0 0
11044 1 1.4684838140603582 1.966646703100227 20.448218143112634 0 0 0
11101 1 3.951421701037742 2.850165716004572 20.439114702934564 0 0 0
11045 3 6.649798616151409 0.9384289563244933 20.48320555016977 0 0 0
11050 1 9.311724621381378 1.8549077689605056 20.553922878316424 0 0 0
11107 1 11.889094445836509 2.803893452611074 20.46921603906139 0 0 0
11051 3 14.50759151113948 0.9579315392789555 20.510794295781764 0 0 0
11056 3 17.00032678018089 1.9117493053161931 20.459528756639322 0 0 0
11113 2 19.670526741427405 2.8621467082329475 20.571259428726464 0 0 0
11104 3 1.3430347209904914 4.716765199007315 20.547352469555396 0 0 0
11105 2 6.57314288454031 3.7538392970306673 20.481150610523244 0 0 0
11161 3 4.034592292913281 5.608754609842438 20.47128588758576 0 0 0
11110 2 9.306279007811431 4.688100283285075 20.47182525635816 0 0 0
11167 1 11.989535164213722 5.594524689566949 20.46772138581306 0 0 0
11111 2 14.4723306603482 3.7732813035969692 20.512923796252966 0 0 0
11173 3 19.665274963209416 5.6675477775634455 20.47263047010195 0 0 0
11116 1 17.07569874649019 4.736025851319504 20.481782349646227 0 0 0
11164 1 1.4122840538715105 7.344948629137229 20.522316144662184 0 0 0
11221 1 3.9582863222242572 8.39147387277022 20.45594375316468 0 0 0
11225 2 6.598183865535999 9.39884728683225 20.474784824283333 0 0 0
11165 1 6.685474200191307 6.6062371734394825 20.382923968264265 0 0 0
11170 1 9.190800865168386 7.533164494521373 20.422063552346433 0 0 0
11227 1 11.894991801313068 8.432560112035839 20.45103739172542 0 0 0
11171 1 14.52500162334581 6.544945045118813 20.497294604245887 0 0 0
11231 2 14.57377860941336 9.354547086496893 20.450454506538076 0 0 0
11176 3 17.164576230049498 7.55115807577557 20.383481108345126 0 0 0
11224 2 1.3243145769081992 10.222334356704595 20.50328440685526 0 0 0
11281 2 4.0363951542116245 11.220443425250833 20.514236696405654 0 0 0
11285 1 6.6185451194315945 12.158233740371257 20.63730811071939 0 0 0
11230 3 9.221135645839126 10.265238574235992 20.520596695903187 0 0 0
11287 1 11.8688174999874 11.250650936261538 20.525635992362098 0 0 0
11291 1 14.491626476486976 12.14074111916631 20.513056994022374 0 0 0
11236 1 17.197993173892907 10.268797996671513 20.47773072390439 0 0 0
11293 3 19.734265727033563 11.22294884038897 20.519394709994277 0 0 0
11284 2 1.3799412707289183 13.055275957669934 20.514111381011706 0 0 0
11344 1 1.4122092924492828 15.846537548034224 20.542652239717214 0 0 0
11341 2 4.07695030678219 14.026848594495021 20.57508410682176 0 0 0
11345 3 6.647375156152806 14.934084664756579 20.550819939284704 0 0 0
11290 2 9.244699071618554 13.072252260701713 20.510466093719906 0 0 0
11350 1 9.07169408665158 15.841161494846586 20.473628136487502 0 0 0
11347 1 11.897973472435984 14.044589308452311 20.48875766749278 0 0 0
11351 1 14.406473356813208 14.961271143664986 20.57812603644216 0 0 0
11353 2 19.654153335979633 13.98028635840662 20.538266081391573 0 0 0
11296 1 17.069590579513015 12.954324620180435 20.50685269566497 0 0 0
11356 2 17.07531355011086 15.83805203347505 20.523229998383954 0 0 0
13804 2 1.3558361003657504 1.8867823160193913 25.09742211375677 0 0 0
13806 1 2.696054461227496 0.9437825217931282 22.75217114370276 0 0 0
13802 2 5.3340161570218925 1.8734444800420849 22.739402495246832 0 0 0
13861 2 3.9954987402031255 2.8234937382454985 25.065250971090336 0 0 0
13805 1 6.624346758492759 0.978291580745176 25.125018802711388 0 0 0
13810 1 9.277163975906094 1.8595712095858596 25.044552656627676 0 0 0
13869 1 8.063099377680325 2.7795654627571484 22.679843047603132 0 0 0
13809 3 7.891923948806435 0.11032470283812641 22.765768778362418 0 0 0
13812 3 10.625025949950553 0.9718020387298213 22.805952023251717 0 0 0
13867 2 11.847818108617913 2.8374652284573627 25.076675545332954 0 0 0
13808 2 13.17212915304403 1.9344420388207664 22.745840942396544 0 0 0
13811 1 14.475654714490076 1.1233325181181069 24.961987276293556 0 0 0
13875 2 15.81141358067323 2.842439468554163 22.771286887069962 0 0 0
13873 2 19.704992780037486 2.8590117019599304 24.980546868334017 0 0 0
13816 3 17.06764057851257 1.9126149064099476 25.03505257182493 0 0 0
13818 2 18.402598420968992 1.051883752557199 22.757785759275308 0 0 0
13864 1 1.330124650824019 4.69341109184607 25.06130478908556 0 0 0